 Entering Gaussian System, Link 0=g03
 Initial command:
 /apps/gaussian/g03/amd64/g03/l1.exe /scratch/lfs/pengfei/QM/1A5T/Gau-44691.inp -scrdir=/scratch/lfs/pengfei/QM/1A5T/
 Entering Link 1 = /apps/gaussian/g03/amd64/g03/l1.exe PID=     44692.
  
 Copyright (c) 1988,1990,1992,1993,1995,1998,2003,2004,2007, Gaussian, Inc.
                  All Rights Reserved.
  
 This is the Gaussian(R) 03 program.  It is based on the
 the Gaussian(R) 98 system (copyright 1998, Gaussian, Inc.),
 the Gaussian(R) 94 system (copyright 1995, Gaussian, Inc.),
 the Gaussian 92(TM) system (copyright 1992, Gaussian, Inc.),
 the Gaussian 90(TM) system (copyright 1990, Gaussian, Inc.),
 the Gaussian 88(TM) system (copyright 1988, Gaussian, Inc.),
 the Gaussian 86(TM) system (copyright 1986, Carnegie Mellon
 University), and the Gaussian 82(TM) system (copyright 1983,
 Carnegie Mellon University). Gaussian is a federally registered
 trademark of Gaussian, Inc.
  
 This software contains proprietary and confidential information,
 including trade secrets, belonging to Gaussian, Inc.
  
 This software is provided under written license and may be
 used, copied, transmitted, or stored only in accord with that
 written license.
  
 The following legend is applicable only to US Government
 contracts under FAR:
  
                    RESTRICTED RIGHTS LEGEND
  
 Use, reproduction and disclosure by the US Government is
 subject to restrictions as set forth in subparagraphs (a)
 and (c) of the Commercial Computer Software - Restricted
 Rights clause in FAR 52.227-19.
  
 Gaussian, Inc.
 340 Quinnipiac St., Bldg. 40, Wallingford CT 06492
  
  
 ---------------------------------------------------------------
 Warning -- This program may not be used in any manner that
 competes with the business of Gaussian, Inc. or will provide
 assistance to any competitor of Gaussian, Inc.  The licensee
 of this program is prohibited from giving any competitor of
 Gaussian, Inc. access to this program.  By using this program,
 the user acknowledges that Gaussian, Inc. is engaged in the
 business of creating and licensing software in the field of
 computational chemistry and represents and warrants to the
 licensee that it is not a competitor of Gaussian, Inc. and that
 it will not use this program in any manner prohibited above.
 ---------------------------------------------------------------
  

 Cite this work as:
 Gaussian 03, Revision E.01,
 M. J. Frisch, G. W. Trucks, H. B. Schlegel, G. E. Scuseria, 
 M. A. Robb, J. R. Cheeseman, J. A. Montgomery, Jr., T. Vreven, 
 K. N. Kudin, J. C. Burant, J. M. Millam, S. S. Iyengar, J. Tomasi, 
 V. Barone, B. Mennucci, M. Cossi, G. Scalmani, N. Rega, 
 G. A. Petersson, H. Nakatsuji, M. Hada, M. Ehara, K. Toyota, 
 R. Fukuda, J. Hasegawa, M. Ishida, T. Nakajima, Y. Honda, O. Kitao, 
 H. Nakai, M. Klene, X. Li, J. E. Knox, H. P. Hratchian, J. B. Cross, 
 V. Bakken, C. Adamo, J. Jaramillo, R. Gomperts, R. E. Stratmann, 
 O. Yazyev, A. J. Austin, R. Cammi, C. Pomelli, J. W. Ochterski, 
 P. Y. Ayala, K. Morokuma, G. A. Voth, P. Salvador, J. J. Dannenberg, 
 V. G. Zakrzewski, S. Dapprich, A. D. Daniels, M. C. Strain, 
 O. Farkas, D. K. Malick, A. D. Rabuck, K. Raghavachari, 
 J. B. Foresman, J. V. Ortiz, Q. Cui, A. G. Baboul, S. Clifford, 
 J. Cioslowski, B. B. Stefanov, G. Liu, A. Liashenko, P. Piskorz, 
 I. Komaromi, R. L. Martin, D. J. Fox, T. Keith, M. A. Al-Laham, 
 C. Y. Peng, A. Nanayakkara, M. Challacombe, P. M. W. Gill, 
 B. Johnson, W. Chen, M. W. Wong, C. Gonzalez, and J. A. Pople, 
 Gaussian, Inc., Wallingford CT, 2004.
 
 ******************************************
 Gaussian 03:  AM64L-G03RevE.01 11-Sep-2007
                 3-Mar-2015 
 ******************************************
 %Chk=1A5T_large_mk.chk
 %Mem=6000MB
 %NProcShared=12
 Will use up to   12 processors via shared memory.
 ----------------------------------------------------------------------
 #N B3LYP/6-31G* Integral=(Grid=UltraFine) Pop(MK,ReadRadii) SCF=XQC IO
 p(6/33=2)
 ----------------------------------------------------------------------
 1/38=1/1;
 2/17=6,18=5,40=1/2;
 3/5=1,6=6,7=1,11=2,16=1,25=1,30=1,74=-5,75=5/1,2,3;
 4//1;
 5/5=2,8=3,13=1,32=1,38=5/2,8;
 6/7=2,8=2,9=2,10=2,15=8,20=101,28=1,33=2/1,2;
 99/5=1,9=1/99;
 ---
 CLR
 ---
 Symbolic Z-matrix:
 Charge = -2 Multiplicity = 1
 H                     19.368    53.242    51.265 
 C                     19.778    54.251    51.212 
 C                     18.904    55.134    50.319 
 O                     19.264    56.288    50.038 
 H                     20.809    54.225    50.86 
 H                     19.813    54.682    52.212 
 N                     17.791    54.601    49.826 
 C                     16.907    55.427    49.022 
 C                     16.024    56.213    49.989 
 O                     15.317    55.653    50.829 
 C                     16.045    54.627    48.05 
 S                     15.055    55.715    46.973 
 H                     17.572    53.633    50.014 
 H                     17.501    56.104    48.407 
 H                     16.685    54.01     47.419 
 H                     15.363    53.987    48.61 
 N                     16.101    57.533    49.881 
 C                     15.329    58.396    50.755 
 H                     14.278    58.431    50.468 
 H                     15.754    59.4      50.751 
 H                     16.703    57.945    49.183 
 H                     15.39     58.026    51.778 
 H                     15.071    51.842    44.355 
 C                     15.55     52.786    44.613 
 C                     14.921    53.743    43.57 
 O                     14.653    53.316    42.449 
 H                     16.615    52.67     44.41 
 H                     15.306    53.049    45.642 
 N                     14.67     55.011    43.896 
 C                     14.057    55.891    42.884 
 C                     15.017    56.344    41.773 
 O                     14.613    56.524    40.62 
 C                     13.39     57.099    43.544 
 S                     14.531    58.159    44.482 
 H                     14.9      55.347    44.82 
 H                     13.233    55.368    42.399 
 H                     12.929    57.724    42.779 
 H                     12.625    56.757    44.241 
 N                     16.287    56.546    42.123 
 C                     17.289    56.993    41.151 
 C                     17.319    58.499    40.93 
 O                     18.013    58.971    40.04 
 H                     16.575    56.39     43.078 
 H                     18.282    56.701    41.492 
 H                     17.088    56.533    40.183 
 N                     16.606    59.235    41.784 
 C                     16.476    60.687    41.721 
 C                     16.819    61.4      43.03 
 O                     17.517    62.407    42.995 
 H                     15.456    60.949    41.44 
 H                     16.108    58.786    42.54 
 H                     17.146    61.079    40.956 
 N                     16.342    60.894    44.168 
 C                     16.609    61.52     45.47 
 C                     18.102    61.749    45.643 
 O                     18.909    61.12     44.947 
 C                     16.075    60.662    46.631 
 S                     17.056    59.153    47.047 
 H                     15.779    60.056    44.148 
 H                     16.092    62.478    45.526 
 H                     16.044    61.261    47.541 
 H                     15.071    60.311    46.392 
 N                     18.482    62.62     46.575 
 C                     19.906    62.921    46.785 
 C                     20.759    61.711    47.188 
 O                     21.928    61.589    46.784 
 H                     20.044    63.745    47.485 
 H                     17.787    63.08     47.145 
 H                     20.334    63.317    45.864 
 N                     20.16     60.808    47.963 
 C                     20.858    59.609    48.41 
 C                     21.27     58.767    47.232 
 O                     22.399    58.286    47.174 
 H                     19.202    60.95     48.251 
 H                     21.749    59.894    48.969 
 H                     20.2      59.022    49.051 
 N                     20.342    58.574    46.298 
 C                     20.622    57.804    45.085 
 C                     21.647    58.549    44.244 
 O                     22.493    57.919    43.615 
 C                     19.34     57.582    44.265 
 S                     18.138    56.425    45. 
 H                     19.418    58.964    46.42 
 H                     21.016    56.825    45.358 
 H                     18.819    58.531    44.14 
 H                     19.599    57.179    43.286 
 N                     21.559    59.881    44.217 
 C                     22.501    60.696    43.447 
 H                     23.514    60.542    43.819 
 H                     22.224    61.75     43.48 
 H                     20.829    60.346    44.737 
 H                     22.456    60.409    42.396 
 Zn                    16.2      57.412    45.833 
 
 Stoichiometry    C26H42N10O10S4Zn(2-)
 Framework group  C1[X(C26H42N10O10S4Zn)]
 Deg. of freedom   273
 Full point group                 C1
 Largest Abelian subgroup         C1      NOp   1
 Largest concise Abelian subgroup C1      NOp   1
                         Standard orientation:                         
 ---------------------------------------------------------------------
 Center     Atomic     Atomic              Coordinates (Angstroms)
 Number     Number      Type              X           Y           Z
 ---------------------------------------------------------------------
    1          1             0       -1.042989    7.050161    2.681741
    2          6             0       -0.068682    6.707814    2.331721
    3          6             0       -0.229875    5.496698    1.410728
    4          8             0        0.770197    4.887773    0.999215
    5          1             0        0.581642    6.482243    3.176551
    6          1             0        0.421902    7.509689    1.780984
    7          7             0       -1.465710    5.103673    1.120645
    8          6             0       -1.658074    3.993975    0.203194
    9          6             0       -1.577058    4.562203   -1.212125
   10          8             0       -2.318892    5.469140   -1.594480
   11          6             0       -2.981500    3.261850    0.404099
   12         16             0       -3.114806    1.799636   -0.676611
   13          1             0       -2.254100    5.577394    1.538208
   14          1             0       -0.877424    3.249545    0.363811
   15          1             0       -3.060906    2.931205    1.439869
   16          1             0       -3.808156    3.934183    0.174031
   17          7             0       -0.633305    4.034874   -1.981052
   18          6             0       -0.436740    4.500842   -3.340781
   19          1             0       -1.203303    4.120935   -4.016242
   20          1             0        0.553025    4.207602   -3.691544
   21          1             0       -0.043302    3.300112   -1.618598
   22          1             0       -0.474709    5.589552   -3.361271
   23          1             0       -6.210523    0.610837    2.618477
   24          6             0       -5.179486    0.588625    2.266893
   25          6             0       -5.142253   -0.764769    1.514379
   26          8             0       -5.815089   -1.703564    1.934797
   27          1             0       -4.541793    0.535827    3.149757
   28          1             0       -4.996481    1.446685    1.620528
   29          7             0       -4.392258   -0.897873    0.420354
   30          6             0       -4.391423   -2.195366   -0.280237
   31          6             0       -3.590488   -3.298189    0.429280
   32          8             0       -3.947357   -4.478959    0.370552
   33          6             0       -3.919762   -2.033879   -1.726339
   34         16             0       -2.226342   -1.392821   -1.889723
   35          1             0       -3.842216   -0.117969    0.090542
   36          1             0       -5.414998   -2.557025   -0.376293
   37          1             0       -3.945104   -3.001273   -2.228212
   38          1             0       -4.576874   -1.338320   -2.248258
   39          7             0       -2.495664   -2.916257    1.086313
   40          6             0       -1.645643   -3.882512    1.788035
   41          6             0       -0.626322   -4.581489    0.899108
   42          8             0        0.037347   -5.507776    1.344142
   43          1             0       -2.237745   -1.940364    1.106704
   44          1             0       -1.087600   -3.372979    2.573247
   45          1             0       -2.267938   -4.660374    2.231549
   46          7             0       -0.478825   -4.087119   -0.331024
   47          6             0        0.417187   -4.634882   -1.344085
   48          6             0        1.371505   -3.606156   -1.952772
   49          8             0        2.550810   -3.903895   -2.104655
   50          1             0       -0.170377   -5.080709   -2.146588
   51          1             0       -1.011018   -3.275938   -0.613683
   52          1             0        1.030087   -5.419680   -0.901100
   53          7             0        0.879689   -2.415231   -2.296899
   54          6             0        1.719340   -1.371677   -2.900513
   55          6             0        2.960164   -1.144049   -2.052008
   56          8             0        2.979388   -1.516180   -0.871985
   57          6             0        0.949130   -0.049006   -3.063474
   58         16             0        0.674543    0.929147   -1.520647
   59          1             0       -0.097418   -2.211962   -2.143420
   60          1             0        2.022609   -1.681846   -3.900520
   61          1             0        1.493389    0.606961   -3.742703
   62          1             0       -0.041550   -0.252751   -3.470144
   63          7             0        3.985351   -0.518057   -2.625411
   64          6             0        5.233244   -0.285746   -1.882934
   65          6             0        5.071696    0.570084   -0.619773
   66          8             0        5.744617    0.340080    0.399510
   67          1             0        6.015941    0.114875   -2.527068
   68          1             0        3.907627   -0.198409   -3.580036
   69          1             0        5.651606   -1.241208   -1.566222
   70          7             0        4.159227    1.538584   -0.684903
   71          6             0        3.903274    2.417615    0.449296
   72          6             0        3.415469    1.625213    1.632738
   73          8             0        3.871930    1.834461    2.753998
   74          1             0        3.629359    1.672794   -1.534668
   75          1             0        4.823032    2.933200    0.724622
   76          1             0        3.143736    3.150953    0.177759
   77          7             0        2.469292    0.723480    1.382905
   78          6             0        1.931876   -0.137832    2.437417
   79          6             0        3.025258   -1.076552    2.923475
   80          8             0        3.082684   -1.381716    4.111681
   81          6             0        0.735163   -0.956120    1.924104
   82         16             0       -0.784456    0.001508    1.612039
   83          1             0        2.105828    0.623485    0.445539
   84          1             0        1.583096    0.476935    3.267248
   85          1             0        0.998740   -1.433849    0.980722
   86          1             0        0.474951   -1.719845    2.656870
   87          7             0        3.874505   -1.547166    2.006961
   88          6             0        4.969460   -2.449902    2.368388
   89          1             0        5.641773   -1.954624    3.069077
   90          1             0        5.504280   -2.790657    1.481490
   91          1             0        3.767035   -1.279442    1.039335
   92          1             0        4.562194   -3.347894    2.833940
   93         30             0       -1.332744    0.278813   -0.634376
 ---------------------------------------------------------------------
 Rotational constants (GHZ):      0.0528739      0.0508239      0.0355156
 Standard basis: 6-31G(d) (6D, 7F)
 There are   886 symmetry adapted basis functions of A   symmetry.
 Integral buffers will be    131072 words long.
 Raffenetti 2 integral format.
 Two-electron integral symmetry is turned on.
   886 basis functions,  1768 primitive gaussians,   889 cartesian basis functions
   222 alpha electrons      222 beta electrons
       nuclear repulsion energy     10357.8649534323 Hartrees.
 NAtoms=   93 NActive=   93 NUniq=   93 SFac= 7.50D-01 NAtFMM=   80 NAOKFM=T Big=T
 One-electron integrals computed using PRISM.
 NBasis=   886 RedAO= T  NBF=   886
 NBsUse=   886 1.00D-06 NBFU=   886
 Harris functional with IExCor=  402 diagonalized for initial guess.
 ExpMin= 4.93D-02 ExpMax= 8.24D+04 ExpMxC= 1.24D+04 IAcc=3 IRadAn=         5 AccDes= 0.00D+00
 HarFok:  IExCor= 402 AccDes= 0.00D+00 IRadAn=         5 IDoV=1
 ScaDFX=  1.000000  1.000000  1.000000  1.000000
 Initial guess orbital symmetries:
       Occupied  (A) (A) (A) (A) (A) (A) (A) (A) (A) (A) (A) (A)
                 (A) (A) (A) (A) (A) (A) (A) (A) (A) (A) (A) (A)
                 (A) (A) (A) (A) (A) (A) (A) (A) (A) (A) (A) (A)
                 (A) (A) (A) (A) (A) (A) (A) (A) (A) (A) (A) (A)
                 (A) (A) (A) (A) (A) (A) (A) (A) (A) (A) (A) (A)
                 (A) (A) (A) (A) (A) (A) (A) (A) (A) (A) (A) (A)
                 (A) (A) (A) (A) (A) (A) (A) (A) (A) (A) (A) (A)
                 (A) (A) (A) (A) (A) (A) (A) (A) (A) (A) (A) (A)
                 (A) (A) (A) (A) (A) (A) (A) (A) (A) (A) (A) (A)
                 (A) (A) (A) (A) (A) (A) (A) (A) (A) (A) (A) (A)
                 (A) (A) (A) (A) (A) (A) (A) (A) (A) (A) (A) (A)
                 (A) (A) (A) (A) (A) (A) (A) (A) (A) (A) (A) (A)
                 (A) (A) (A) (A) (A) (A) (A) (A) (A) (A) (A) (A)
                 (A) (A) (A) (A) (A) (A) (A) (A) (A) (A) (A) (A)
                 (A) (A) (A) (A) (A) (A) (A) (A) (A) (A) (A) (A)
                 (A) (A) (A) (A) (A) (A) (A) (A) (A) (A) (A) (A)
                 (A) (A) (A) (A) (A) (A) (A) (A) (A) (A) (A) (A)
                 (A) (A) (A) (A) (A) (A) (A) (A) (A) (A) (A) (A)
                 (A) (A) (A) (A) (A) (A)
       Virtual   (A) (A) (A) (A) (A) (A) (A) (A) (A) (A) (A) (A)
                 (A) (A) (A) (A) (A) (A) (A) (A) (A) (A) (A) (A)
                 (A) (A) (A) (A) (A) (A) (A) (A) (A) (A) (A) (A)
                 (A) (A) (A) (A) (A) (A) (A) (A) (A) (A) (A) (A)
                 (A) (A) (A) (A) (A) (A) (A) (A) (A) (A) (A) (A)
                 (A) (A) (A) (A) (A) (A) (A) (A) (A) (A) (A) (A)
                 (A) (A) (A) (A) (A) (A) (A) (A) (A) (A) (A) (A)
                 (A) (A) (A) (A) (A) (A) (A) (A) (A) (A) (A) (A)
                 (A) (A) (A) (A) (A) (A) (A) (A) (A) (A) (A) (A)
                 (A) (A) (A) (A) (A) (A) (A) (A) (A) (A) (A) (A)
                 (A) (A) (A) (A) (A) (A) (A) (A) (A) (A) (A) (A)
                 (A) (A) (A) (A) (A) (A) (A) (A) (A) (A) (A) (A)
                 (A) (A) (A) (A) (A) (A) (A) (A) (A) (A) (A) (A)
                 (A) (A) (A) (A) (A) (A) (A) (A) (A) (A) (A) (A)
                 (A) (A) (A) (A) (A) (A) (A) (A) (A) (A) (A) (A)
                 (A) (A) (A) (A) (A) (A) (A) (A) (A) (A) (A) (A)
                 (A) (A) (A) (A) (A) (A) (A) (A) (A) (A) (A) (A)
                 (A) (A) (A) (A) (A) (A) (A) (A) (A) (A) (A) (A)
                 (A) (A) (A) (A) (A) (A) (A) (A) (A) (A) (A) (A)
                 (A) (A) (A) (A) (A) (A) (A) (A) (A) (A) (A) (A)
                 (A) (A) (A) (A) (A) (A) (A) (A) (A) (A) (A) (A)
                 (A) (A) (A) (A) (A) (A) (A) (A) (A) (A) (A) (A)
                 (A) (A) (A) (A) (A) (A) (A) (A) (A) (A) (A) (A)
                 (A) (A) (A) (A) (A) (A) (A) (A) (A) (A) (A) (A)
                 (A) (A) (A) (A) (A) (A) (A) (A) (A) (A) (A) (A)
                 (A) (A) (A) (A) (A) (A) (A) (A) (A) (A) (A) (A)
                 (A) (A) (A) (A) (A) (A) (A) (A) (A) (A) (A) (A)
                 (A) (A) (A) (A) (A) (A) (A) (A) (A) (A) (A) (A)
                 (A) (A) (A) (A) (A) (A) (A) (A) (A) (A) (A) (A)
                 (A) (A) (A) (A) (A) (A) (A) (A) (A) (A) (A) (A)
                 (A) (A) (A) (A) (A) (A) (A) (A) (A) (A) (A) (A)
                 (A) (A) (A) (A) (A) (A) (A) (A) (A) (A) (A) (A)
                 (A) (A) (A) (A) (A) (A) (A) (A) (A) (A) (A) (A)
                 (A) (A) (A) (A) (A) (A) (A) (A) (A) (A) (A) (A)
                 (A) (A) (A) (A) (A) (A) (A) (A) (A) (A) (A) (A)
                 (A) (A) (A) (A) (A) (A) (A) (A) (A) (A) (A) (A)
                 (A) (A) (A) (A) (A) (A) (A) (A) (A) (A) (A) (A)
                 (A) (A) (A) (A) (A) (A) (A) (A) (A) (A) (A) (A)
                 (A) (A) (A) (A) (A) (A) (A) (A) (A) (A) (A) (A)
                 (A) (A) (A) (A) (A) (A) (A) (A) (A) (A) (A) (A)
                 (A) (A) (A) (A) (A) (A) (A) (A) (A) (A) (A) (A)
                 (A) (A) (A) (A) (A) (A) (A) (A) (A) (A) (A) (A)
                 (A) (A) (A) (A) (A) (A) (A) (A) (A) (A) (A) (A)
                 (A) (A) (A) (A) (A) (A) (A) (A) (A) (A) (A) (A)
                 (A) (A) (A) (A) (A) (A) (A) (A) (A) (A) (A) (A)
                 (A) (A) (A) (A) (A) (A) (A) (A) (A) (A) (A) (A)
                 (A) (A) (A) (A) (A) (A) (A) (A) (A) (A) (A) (A)
                 (A) (A) (A) (A) (A) (A) (A) (A) (A) (A) (A) (A)
                 (A) (A) (A) (A) (A) (A) (A) (A) (A) (A) (A) (A)
                 (A) (A) (A) (A) (A) (A) (A) (A) (A) (A) (A) (A)
                 (A) (A) (A) (A) (A) (A) (A) (A) (A) (A) (A) (A)
                 (A) (A) (A) (A) (A) (A) (A) (A) (A) (A) (A) (A)
                 (A) (A) (A) (A) (A) (A) (A) (A) (A) (A) (A) (A)
                 (A) (A) (A) (A) (A) (A) (A) (A) (A) (A) (A) (A)
                 (A) (A) (A) (A) (A) (A) (A) (A) (A) (A) (A) (A)
                 (A) (A) (A) (A)
 The electronic state of the initial guess is 1-A.
 Requested convergence on RMS density matrix=1.00D-04 within 128 cycles.
 Requested convergence on MAX density matrix=1.00D-02.
 Requested convergence on             energy=1.00D-02.
 No special actions if energy rises.
 SCF Done:  E(RB+HF-LYP) =  -5688.02524769     A.U. after    8 cycles
             Convg  =    0.2612D-04             -V/T =  2.0049
             S**2   =   0.0000
 QCSCF skips out because SCF is already converged.

 **********************************************************************

            Population analysis using the SCF density.

 **********************************************************************

 Orbital symmetries:
 BldTbl:  Degeneracy threshold= 1.00D-02
       Occupied  (A) (A) (A) (A) (A) (A) (A) (A) (A) (A) (A) (A)
                 (A) (A) (A) (A) (A) (A) (A) (A) (A) (A) (A) (A)
                 (A) (A) (A) (A) (A) (A) (A) (A) (A) (A) (A) (A)
                 (A) (A) (A) (A) (A) (A) (A) (A) (A) (A) (A) (A)
                 (A) (A) (A) (A) (A) (A) (A) (A) (A) (A) (A) (A)
                 (A) (A) (A) (A) (A) (A) (A) (A) (A) (A) (A) (A)
                 (A) (A) (A) (A) (A) (A) (A) (A) (A) (A) (A) (A)
                 (A) (A) (A) (A) (A) (A) (A) (A) (A) (A) (A) (A)
                 (A) (A) (A) (A) (A) (A) (A) (A) (A) (A) (A) (A)
                 (A) (A) (A) (A) (A) (A) (A) (A) (A) (A) (A) (A)
                 (A) (A) (A) (A) (A) (A) (A) (A) (A) (A) (A) (A)
                 (A) (A) (A) (A) (A) (A) (A) (A) (A) (A) (A) (A)
                 (A) (A) (A) (A) (A) (A) (A) (A) (A) (A) (A) (A)
                 (A) (A) (A) (A) (A) (A) (A) (A) (A) (A) (A) (A)
                 (A) (A) (A) (A) (A) (A) (A) (A) (A) (A) (A) (A)
                 (A) (A) (A) (A) (A) (A) (A) (A) (A) (A) (A) (A)
                 (A) (A) (A) (A) (A) (A) (A) (A) (A) (A) (A) (A)
                 (A) (A) (A) (A) (A) (A) (A) (A) (A) (A) (A) (A)
                 (A) (A) (A) (A) (A) (A)
       Virtual   (A) (A) (A) (A) (A) (A) (A) (A) (A) (A) (A) (A)
                 (A) (A) (A) (A) (A) (A) (A) (A) (A) (A) (A) (A)
                 (A) (A) (A) (A) (A) (A) (A) (A) (A) (A) (A) (A)
                 (A) (A) (A) (A) (A) (A) (A) (A) (A) (A) (A) (A)
                 (A) (A) (A) (A) (A) (A) (A) (A) (A) (A) (A) (A)
                 (A) (A) (A) (A) (A) (A) (A) (A) (A) (A) (A) (A)
                 (A) (A) (A) (A) (A) (A) (A) (A) (A) (A) (A) (A)
                 (A) (A) (A) (A) (A) (A) (A) (A) (A) (A) (A) (A)
                 (A) (A) (A) (A) (A) (A) (A) (A) (A) (A) (A) (A)
                 (A) (A) (A) (A) (A) (A) (A) (A) (A) (A) (A) (A)
                 (A) (A) (A) (A) (A) (A) (A) (A) (A) (A) (A) (A)
                 (A) (A) (A) (A) (A) (A) (A) (A) (A) (A) (A) (A)
                 (A) (A) (A) (A) (A) (A) (A) (A) (A) (A) (A) (A)
                 (A) (A) (A) (A) (A) (A) (A) (A) (A) (A) (A) (A)
                 (A) (A) (A) (A) (A) (A) (A) (A) (A) (A) (A) (A)
                 (A) (A) (A) (A) (A) (A) (A) (A) (A) (A) (A) (A)
                 (A) (A) (A) (A) (A) (A) (A) (A) (A) (A) (A) (A)
                 (A) (A) (A) (A) (A) (A) (A) (A) (A) (A) (A) (A)
                 (A) (A) (A) (A) (A) (A) (A) (A) (A) (A) (A) (A)
                 (A) (A) (A) (A) (A) (A) (A) (A) (A) (A) (A) (A)
                 (A) (A) (A) (A) (A) (A) (A) (A) (A) (A) (A) (A)
                 (A) (A) (A) (A) (A) (A) (A) (A) (A) (A) (A) (A)
                 (A) (A) (A) (A) (A) (A) (A) (A) (A) (A) (A) (A)
                 (A) (A) (A) (A) (A) (A) (A) (A) (A) (A) (A) (A)
                 (A) (A) (A) (A) (A) (A) (A) (A) (A) (A) (A) (A)
                 (A) (A) (A) (A) (A) (A) (A) (A) (A) (A) (A) (A)
                 (A) (A) (A) (A) (A) (A) (A) (A) (A) (A) (A) (A)
                 (A) (A) (A) (A) (A) (A) (A) (A) (A) (A) (A) (A)
                 (A) (A) (A) (A) (A) (A) (A) (A) (A) (A) (A) (A)
                 (A) (A) (A) (A) (A) (A) (A) (A) (A) (A) (A) (A)
                 (A) (A) (A) (A) (A) (A) (A) (A) (A) (A) (A) (A)
                 (A) (A) (A) (A) (A) (A) (A) (A) (A) (A) (A) (A)
                 (A) (A) (A) (A) (A) (A) (A) (A) (A) (A) (A) (A)
                 (A) (A) (A) (A) (A) (A) (A) (A) (A) (A) (A) (A)
                 (A) (A) (A) (A) (A) (A) (A) (A) (A) (A) (A) (A)
                 (A) (A) (A) (A) (A) (A) (A) (A) (A) (A) (A) (A)
                 (A) (A) (A) (A) (A) (A) (A) (A) (A) (A) (A) (A)
                 (A) (A) (A) (A) (A) (A) (A) (A) (A) (A) (A) (A)
                 (A) (A) (A) (A) (A) (A) (A) (A) (A) (A) (A) (A)
                 (A) (A) (A) (A) (A) (A) (A) (A) (A) (A) (A) (A)
                 (A) (A) (A) (A) (A) (A) (A) (A) (A) (A) (A) (A)
                 (A) (A) (A) (A) (A) (A) (A) (A) (A) (A) (A) (A)
                 (A) (A) (A) (A) (A) (A) (A) (A) (A) (A) (A) (A)
                 (A) (A) (A) (A) (A) (A) (A) (A) (A) (A) (A) (A)
                 (A) (A) (A) (A) (A) (A) (A) (A) (A) (A) (A) (A)
                 (A) (A) (A) (A) (A) (A) (A) (A) (A) (A) (A) (A)
                 (A) (A) (A) (A) (A) (A) (A) (A) (A) (A) (A) (A)
                 (A) (A) (A) (A) (A) (A) (A) (A) (A) (A) (A) (A)
                 (A) (A) (A) (A) (A) (A) (A) (A) (A) (A) (A) (A)
                 (A) (A) (A) (A) (A) (A) (A) (A) (A) (A) (A) (A)
                 (A) (A) (A) (A) (A) (A) (A) (A) (A) (A) (A) (A)
                 (A) (A) (A) (A) (A) (A) (A) (A) (A) (A) (A) (A)
                 (A) (A) (A) (A) (A) (A) (A) (A) (A) (A) (A) (A)
                 (A) (A) (A) (A) (A) (A) (A) (A) (A) (A) (A) (A)
                 (A) (A) (A) (A) (A) (A) (A) (A) (A) (A) (A) (A)
                 (A) (A) (A) (A)
 The electronic state is 1-A.
 Alpha  occ. eigenvalues -- -347.03495 -88.64701 -88.63926 -88.62446 -88.61460
 Alpha  occ. eigenvalues --  -42.00319 -36.98755 -36.98716 -36.98633 -18.96302
 Alpha  occ. eigenvalues --  -18.95697 -18.94687 -18.93820 -18.93136 -18.92394
 Alpha  occ. eigenvalues --  -18.92023 -18.91767 -18.91620 -18.90682 -14.23584
 Alpha  occ. eigenvalues --  -14.21046 -14.20698 -14.18841 -14.17900 -14.17794
 Alpha  occ. eigenvalues --  -14.16712 -14.16269 -14.15750 -14.15668 -10.13786
 Alpha  occ. eigenvalues --  -10.13599 -10.12971 -10.11361 -10.10122 -10.10024
 Alpha  occ. eigenvalues --  -10.09947 -10.09674 -10.09489 -10.09117 -10.08614
 Alpha  occ. eigenvalues --  -10.07818 -10.05937 -10.05856 -10.05649 -10.05506
 Alpha  occ. eigenvalues --  -10.05349 -10.05327 -10.05106 -10.04566 -10.03906
 Alpha  occ. eigenvalues --  -10.03809 -10.03158 -10.02769 -10.01064 -10.00921
 Alpha  occ. eigenvalues --   -7.70956  -7.70339  -7.68769  -7.67713  -5.67511
 Alpha  occ. eigenvalues --   -5.66864  -5.66860  -5.66624  -5.66216  -5.66042
 Alpha  occ. eigenvalues --   -5.65330  -5.64631  -5.64447  -5.64242  -5.63591
 Alpha  occ. eigenvalues --   -5.63430  -4.58186  -2.97391  -2.97337  -2.97126
 Alpha  occ. eigenvalues --   -0.89110  -0.87444  -0.87029  -0.86225  -0.85227
 Alpha  occ. eigenvalues --   -0.85214  -0.84638  -0.84145  -0.83807  -0.82818
 Alpha  occ. eigenvalues --   -0.79167  -0.77039  -0.76736  -0.76073  -0.74737
 Alpha  occ. eigenvalues --   -0.74571  -0.73655  -0.73382  -0.72341  -0.71467
 Alpha  occ. eigenvalues --   -0.63930  -0.62488  -0.61310  -0.60814  -0.58962
 Alpha  occ. eigenvalues --   -0.58572  -0.57568  -0.55650  -0.55354  -0.55177
 Alpha  occ. eigenvalues --   -0.54035  -0.52949  -0.51888  -0.50190  -0.49702
 Alpha  occ. eigenvalues --   -0.48240  -0.46580  -0.44277  -0.44232  -0.43653
 Alpha  occ. eigenvalues --   -0.42735  -0.42036  -0.41382  -0.41197  -0.40730
 Alpha  occ. eigenvalues --   -0.40069  -0.39848  -0.39379  -0.38789  -0.38558
 Alpha  occ. eigenvalues --   -0.38179  -0.37154  -0.36790  -0.36019  -0.34667
 Alpha  occ. eigenvalues --   -0.34353  -0.33513  -0.32959  -0.32214  -0.32109
 Alpha  occ. eigenvalues --   -0.31754  -0.31329  -0.31273  -0.30379  -0.29923
 Alpha  occ. eigenvalues --   -0.29556  -0.29438  -0.29094  -0.28780  -0.28676
 Alpha  occ. eigenvalues --   -0.27958  -0.27347  -0.27020  -0.26811  -0.26626
 Alpha  occ. eigenvalues --   -0.26564  -0.26489  -0.26089  -0.26007  -0.25520
 Alpha  occ. eigenvalues --   -0.25272  -0.24894  -0.24847  -0.24610  -0.24456
 Alpha  occ. eigenvalues --   -0.24178  -0.23988  -0.23900  -0.23644  -0.23615
 Alpha  occ. eigenvalues --   -0.23390  -0.23316  -0.23089  -0.23002  -0.22827
 Alpha  occ. eigenvalues --   -0.22555  -0.22297  -0.21683  -0.21570  -0.21369
 Alpha  occ. eigenvalues --   -0.21159  -0.20986  -0.20448  -0.20278  -0.20130
 Alpha  occ. eigenvalues --   -0.19961  -0.19747  -0.19106  -0.18846  -0.18640
 Alpha  occ. eigenvalues --   -0.18397  -0.18047  -0.17932  -0.17446  -0.16836
 Alpha  occ. eigenvalues --   -0.15460  -0.15113  -0.14459  -0.13094  -0.12953
 Alpha  occ. eigenvalues --   -0.11004  -0.10678  -0.10390  -0.09785  -0.09368
 Alpha  occ. eigenvalues --   -0.09157  -0.08982  -0.08780  -0.08474  -0.08142
 Alpha  occ. eigenvalues --   -0.07665  -0.07229  -0.07016  -0.06156  -0.06117
 Alpha  occ. eigenvalues --   -0.05694  -0.05520  -0.05509  -0.05358  -0.04842
 Alpha  occ. eigenvalues --   -0.04639  -0.03782  -0.03063  -0.02903  -0.01384
 Alpha  occ. eigenvalues --   -0.00764   0.00039
 Alpha virt. eigenvalues --    0.16613   0.17111   0.18235   0.18540   0.19765
 Alpha virt. eigenvalues --    0.20127   0.20847   0.21196   0.21375   0.21592
 Alpha virt. eigenvalues --    0.21902   0.22029   0.22304   0.22859   0.24072
 Alpha virt. eigenvalues --    0.24640   0.25182   0.25535   0.26344   0.26530
 Alpha virt. eigenvalues --    0.26656   0.26897   0.27301   0.27853   0.28582
 Alpha virt. eigenvalues --    0.29069   0.29556   0.29728   0.29958   0.30192
 Alpha virt. eigenvalues --    0.30297   0.30639   0.30868   0.31000   0.31343
 Alpha virt. eigenvalues --    0.31607   0.31944   0.32076   0.32250   0.32674
 Alpha virt. eigenvalues --    0.32898   0.33052   0.33278   0.33458   0.33554
 Alpha virt. eigenvalues --    0.33777   0.33897   0.33973   0.34377   0.34511
 Alpha virt. eigenvalues --    0.35053   0.35279   0.35466   0.35875   0.36033
 Alpha virt. eigenvalues --    0.36503   0.36851   0.36985   0.37102   0.37456
 Alpha virt. eigenvalues --    0.38213   0.38520   0.38806   0.39110   0.39664
 Alpha virt. eigenvalues --    0.39910   0.40410   0.40555   0.41136   0.41375
 Alpha virt. eigenvalues --    0.42109   0.42395   0.42941   0.43087   0.43736
 Alpha virt. eigenvalues --    0.44058   0.44159   0.44949   0.45335   0.45425
 Alpha virt. eigenvalues --    0.46295   0.46507   0.46692   0.47633   0.48237
 Alpha virt. eigenvalues --    0.49221   0.49581   0.50458   0.50583   0.50801
 Alpha virt. eigenvalues --    0.51607   0.52070   0.52543   0.53151   0.53380
 Alpha virt. eigenvalues --    0.53646   0.54256   0.55754   0.56555   0.57586
 Alpha virt. eigenvalues --    0.57821   0.58629   0.58829   0.59385   0.59726
 Alpha virt. eigenvalues --    0.60575   0.60666   0.61321   0.61660   0.61766
 Alpha virt. eigenvalues --    0.62998   0.63318   0.63778   0.64155   0.65610
 Alpha virt. eigenvalues --    0.66093   0.66581   0.67047   0.67458   0.67757
 Alpha virt. eigenvalues --    0.68021   0.68534   0.69499   0.69584   0.69656
 Alpha virt. eigenvalues --    0.69785   0.70229   0.70475   0.70782   0.70999
 Alpha virt. eigenvalues --    0.71493   0.71817   0.72144   0.72271   0.72735
 Alpha virt. eigenvalues --    0.72814   0.73010   0.73226   0.73632   0.74091
 Alpha virt. eigenvalues --    0.74665   0.74900   0.75051   0.75436   0.75685
 Alpha virt. eigenvalues --    0.76047   0.76633   0.76827   0.77075   0.77265
 Alpha virt. eigenvalues --    0.77594   0.78048   0.78880   0.79193   0.79478
 Alpha virt. eigenvalues --    0.79554   0.79979   0.80463   0.80995   0.81400
 Alpha virt. eigenvalues --    0.81763   0.82177   0.82381   0.82917   0.83128
 Alpha virt. eigenvalues --    0.83324   0.83613   0.83731   0.84158   0.84677
 Alpha virt. eigenvalues --    0.84894   0.85404   0.85641   0.85945   0.86253
 Alpha virt. eigenvalues --    0.86541   0.87061   0.87358   0.87674   0.87964
 Alpha virt. eigenvalues --    0.88095   0.88672   0.88917   0.89606   0.89834
 Alpha virt. eigenvalues --    0.90516   0.91283   0.91677   0.91881   0.92044
 Alpha virt. eigenvalues --    0.92183   0.93150   0.93281   0.94091   0.94271
 Alpha virt. eigenvalues --    0.94687   0.94882   0.95167   0.95620   0.95907
 Alpha virt. eigenvalues --    0.96108   0.96456   0.96645   0.97412   0.97863
 Alpha virt. eigenvalues --    0.98135   0.98593   0.98952   0.99317   0.99455
 Alpha virt. eigenvalues --    0.99658   0.99901   1.00278   1.00525   1.00841
 Alpha virt. eigenvalues --    1.01098   1.01417   1.01679   1.01797   1.02521
 Alpha virt. eigenvalues --    1.02693   1.02753   1.03317   1.03542   1.03613
 Alpha virt. eigenvalues --    1.03793   1.04259   1.04390   1.04609   1.04920
 Alpha virt. eigenvalues --    1.05087   1.05251   1.05558   1.05738   1.05981
 Alpha virt. eigenvalues --    1.06300   1.06571   1.06758   1.07001   1.07165
 Alpha virt. eigenvalues --    1.07213   1.07622   1.08086   1.08312   1.08606
 Alpha virt. eigenvalues --    1.08878   1.09080   1.09435   1.09591   1.09742
 Alpha virt. eigenvalues --    1.09995   1.10307   1.10557   1.11034   1.11237
 Alpha virt. eigenvalues --    1.11381   1.11762   1.12046   1.12503   1.13399
 Alpha virt. eigenvalues --    1.13680   1.13802   1.14309   1.14601   1.15489
 Alpha virt. eigenvalues --    1.15695   1.16310   1.16606   1.16812   1.16866
 Alpha virt. eigenvalues --    1.17260   1.17974   1.18423   1.18461   1.19202
 Alpha virt. eigenvalues --    1.20032   1.20495   1.20762   1.21032   1.21541
 Alpha virt. eigenvalues --    1.21754   1.22344   1.22591   1.22964   1.23070
 Alpha virt. eigenvalues --    1.23854   1.24341   1.24427   1.25087   1.25570
 Alpha virt. eigenvalues --    1.25796   1.25937   1.26484   1.27072   1.27458
 Alpha virt. eigenvalues --    1.27844   1.28229   1.28888   1.29185   1.29286
 Alpha virt. eigenvalues --    1.29611   1.29860   1.30806   1.31406   1.31533
 Alpha virt. eigenvalues --    1.32035   1.32052   1.33032   1.33672   1.34189
 Alpha virt. eigenvalues --    1.35476   1.35626   1.36533   1.37756   1.37920
 Alpha virt. eigenvalues --    1.39200   1.39428   1.39691   1.40175   1.41249
 Alpha virt. eigenvalues --    1.41691   1.42787   1.43449   1.43833   1.44897
 Alpha virt. eigenvalues --    1.45429   1.46172   1.46640   1.47279   1.48046
 Alpha virt. eigenvalues --    1.48275   1.49196   1.49544   1.50271   1.50760
 Alpha virt. eigenvalues --    1.51603   1.51900   1.52887   1.53323   1.53935
 Alpha virt. eigenvalues --    1.55253   1.55569   1.56269   1.56988   1.57206
 Alpha virt. eigenvalues --    1.57660   1.58580   1.59189   1.60061   1.60607
 Alpha virt. eigenvalues --    1.60945   1.61108   1.61853   1.63414   1.63614
 Alpha virt. eigenvalues --    1.63942   1.64527   1.64721   1.65238   1.66890
 Alpha virt. eigenvalues --    1.67861   1.68026   1.68591   1.69465   1.70659
 Alpha virt. eigenvalues --    1.70688   1.71449   1.71509   1.71951   1.72804
 Alpha virt. eigenvalues --    1.74604   1.75525   1.75891   1.77469   1.78300
 Alpha virt. eigenvalues --    1.79427   1.79798   1.80128   1.81154   1.82280
 Alpha virt. eigenvalues --    1.83377   1.84001   1.84494   1.84550   1.85364
 Alpha virt. eigenvalues --    1.86671   1.86746   1.88008   1.88481   1.88923
 Alpha virt. eigenvalues --    1.89006   1.90078   1.90333   1.91121   1.91719
 Alpha virt. eigenvalues --    1.91961   1.93124   1.93765   1.94233   1.95577
 Alpha virt. eigenvalues --    1.95950   1.96859   1.97584   1.98279   1.98493
 Alpha virt. eigenvalues --    1.98738   1.98906   1.99107   1.99707   2.00049
 Alpha virt. eigenvalues --    2.00355   2.00540   2.00839   2.01197   2.01754
 Alpha virt. eigenvalues --    2.01893   2.02324   2.02758   2.03120   2.03598
 Alpha virt. eigenvalues --    2.03897   2.04220   2.04584   2.05234   2.05518
 Alpha virt. eigenvalues --    2.05777   2.06606   2.06997   2.07136   2.07210
 Alpha virt. eigenvalues --    2.08256   2.08981   2.09221   2.09323   2.09603
 Alpha virt. eigenvalues --    2.09844   2.10759   2.10939   2.11258   2.11478
 Alpha virt. eigenvalues --    2.12018   2.12335   2.13375   2.14553   2.14618
 Alpha virt. eigenvalues --    2.14806   2.15664   2.15765   2.16228   2.16577
 Alpha virt. eigenvalues --    2.16979   2.18078   2.18263   2.18615   2.18718
 Alpha virt. eigenvalues --    2.19169   2.19491   2.19803   2.20393   2.21061
 Alpha virt. eigenvalues --    2.21134   2.22082   2.22194   2.22409   2.22793
 Alpha virt. eigenvalues --    2.23684   2.24438   2.25123   2.25658   2.25845
 Alpha virt. eigenvalues --    2.25986   2.26439   2.27419   2.27833   2.28317
 Alpha virt. eigenvalues --    2.28499   2.29498   2.30111   2.31007   2.31088
 Alpha virt. eigenvalues --    2.31266   2.31400   2.32202   2.33347   2.33534
 Alpha virt. eigenvalues --    2.33940   2.35014   2.35418   2.35835   2.36666
 Alpha virt. eigenvalues --    2.37192   2.37566   2.38145   2.38525   2.39019
 Alpha virt. eigenvalues --    2.39463   2.39586   2.40249   2.42719   2.42901
 Alpha virt. eigenvalues --    2.43307   2.43771   2.44550   2.45470   2.46431
 Alpha virt. eigenvalues --    2.46972   2.47318   2.48061   2.48740   2.49392
 Alpha virt. eigenvalues --    2.50472   2.50547   2.51254   2.51929   2.52670
 Alpha virt. eigenvalues --    2.53394   2.53730   2.54044   2.54275   2.54386
 Alpha virt. eigenvalues --    2.55422   2.55936   2.56522   2.56696   2.57864
 Alpha virt. eigenvalues --    2.58141   2.58418   2.58716   2.58887   2.59205
 Alpha virt. eigenvalues --    2.59742   2.60327   2.60490   2.60643   2.61328
 Alpha virt. eigenvalues --    2.61409   2.61672   2.62587   2.62849   2.63203
 Alpha virt. eigenvalues --    2.64045   2.64481   2.65777   2.66504   2.68477
 Alpha virt. eigenvalues --    2.69993   2.70158   2.70649   2.72405   2.72875
 Alpha virt. eigenvalues --    2.73209   2.73749   2.74905   2.76572   2.76949
 Alpha virt. eigenvalues --    2.77921   2.78404   2.79256   2.80372   2.82459
 Alpha virt. eigenvalues --    2.82606   2.83013   2.83394   2.84466   2.84932
 Alpha virt. eigenvalues --    2.85496   2.86110   2.86199   2.87102   2.87713
 Alpha virt. eigenvalues --    2.88625   2.88975   2.89404   2.89519   2.91190
 Alpha virt. eigenvalues --    2.91534   2.93844   2.94633   2.95573   2.96015
 Alpha virt. eigenvalues --    2.97879   2.98594   2.99322   3.02844   3.02895
 Alpha virt. eigenvalues --    3.06781   3.07064   3.08694   3.09458   3.09776
 Alpha virt. eigenvalues --    3.11515   3.13516   3.13689   3.15068   3.15494
 Alpha virt. eigenvalues --    3.16475   3.17200   3.18370   3.18633   3.20289
 Alpha virt. eigenvalues --    3.21000   3.23193   3.24283   3.32292   3.33123
 Alpha virt. eigenvalues --    3.33374   3.35322   3.35689   3.36677   3.37318
 Alpha virt. eigenvalues --    3.37976   3.41210   3.41949   4.12858   4.13327
 Alpha virt. eigenvalues --    4.14550   4.15242   4.16915   4.18271   4.19232
 Alpha virt. eigenvalues --    4.19464   4.20164   4.20529   4.22513   4.24168
 Alpha virt. eigenvalues --    4.25237   4.26376   4.28860   4.30260   4.31258
 Alpha virt. eigenvalues --    4.32528   4.32889   4.33113   4.34763   4.37398
 Alpha virt. eigenvalues --    4.37810   4.39395   4.39742   4.44337   4.46194
 Alpha virt. eigenvalues --    4.47704   4.48396   4.49324   4.49893   4.50426
 Alpha virt. eigenvalues --    4.52192   4.53648   4.54787   4.58366   4.61544
 Alpha virt. eigenvalues --    4.63077   4.64644   4.65672   4.66899   4.68476
 Alpha virt. eigenvalues --    4.70786   4.75008   4.78437   4.79565   4.85110
 Alpha virt. eigenvalues --    4.89047   4.90050   4.92501  47.56836
          Condensed to atoms (all electrons):
 Mulliken atomic charges:
              1
     1  H    0.120836
     2  C   -0.530025
     3  C    0.613312
     4  O   -0.538925
     5  H    0.178214
     6  H    0.161533
     7  N   -0.571094
     8  C   -0.074131
     9  C    0.639000
    10  O   -0.594673
    11  C   -0.419179
    12  S   -0.379573
    13  H    0.312905
    14  H    0.237331
    15  H    0.166064
    16  H    0.142504
    17  N   -0.557363
    18  C   -0.283532
    19  H    0.158517
    20  H    0.126409
    21  H    0.380206
    22  H    0.149257
    23  H    0.135693
    24  C   -0.535464
    25  C    0.573055
    26  O   -0.550303
    27  H    0.174941
    28  H    0.177273
    29  N   -0.603091
    30  C   -0.021114
    31  C    0.621361
    32  O   -0.575535
    33  C   -0.409740
    34  S   -0.456507
    35  H    0.363456
    36  H    0.155090
    37  H    0.162781
    38  H    0.168809
    39  N   -0.624393
    40  C   -0.219279
    41  C    0.602713
    42  O   -0.555918
    43  H    0.405444
    44  H    0.186552
    45  H    0.181042
    46  N   -0.611883
    47  C   -0.220338
    48  C    0.613196
    49  O   -0.551266
    50  H    0.146414
    51  H    0.387848
    52  H    0.194314
    53  N   -0.611174
    54  C   -0.014611
    55  C    0.692793
    56  O   -0.521007
    57  C   -0.453939
    58  S   -0.423475
    59  H    0.366663
    60  H    0.126645
    61  H    0.124620
    62  H    0.217027
    63  N   -0.614358
    64  C   -0.229689
    65  C    0.609619
    66  O   -0.538274
    67  H    0.144499
    68  H    0.318043
    69  H    0.196827
    70  N   -0.571209
    71  C   -0.236794
    72  C    0.630010
    73  O   -0.557831
    74  H    0.334678
    75  H    0.160451
    76  H    0.200596
    77  N   -0.625571
    78  C    0.002628
    79  C    0.603015
    80  O   -0.582270
    81  C   -0.469496
    82  S   -0.377967
    83  H    0.399236
    84  H    0.170620
    85  H    0.205677
    86  H    0.167980
    87  N   -0.595538
    88  C   -0.276370
    89  H    0.153086
    90  H    0.134153
    91  H    0.398236
    92  H    0.148855
    93  Zn   0.440872
 Sum of Mulliken charges=  -2.00000
 Atomic charges with hydrogens summed into heavy atoms:
              1
     1  H    0.000000
     2  C   -0.069441
     3  C    0.613312
     4  O   -0.538925
     5  H    0.000000
     6  H    0.000000
     7  N   -0.258189
     8  C    0.163199
     9  C    0.639000
    10  O   -0.594673
    11  C   -0.110610
    12  S   -0.379573
    13  H    0.000000
    14  H    0.000000
    15  H    0.000000
    16  H    0.000000
    17  N   -0.177157
    18  C    0.150651
    19  H    0.000000
    20  H    0.000000
    21  H    0.000000
    22  H    0.000000
    23  H    0.000000
    24  C   -0.047556
    25  C    0.573055
    26  O   -0.550303
    27  H    0.000000
    28  H    0.000000
    29  N   -0.239635
    30  C    0.133976
    31  C    0.621361
    32  O   -0.575535
    33  C   -0.078151
    34  S   -0.456507
    35  H    0.000000
    36  H    0.000000
    37  H    0.000000
    38  H    0.000000
    39  N   -0.218949
    40  C    0.148316
    41  C    0.602713
    42  O   -0.555918
    43  H    0.000000
    44  H    0.000000
    45  H    0.000000
    46  N   -0.224035
    47  C    0.120390
    48  C    0.613196
    49  O   -0.551266
    50  H    0.000000
    51  H    0.000000
    52  H    0.000000
    53  N   -0.244511
    54  C    0.112034
    55  C    0.692793
    56  O   -0.521007
    57  C   -0.112291
    58  S   -0.423475
    59  H    0.000000
    60  H    0.000000
    61  H    0.000000
    62  H    0.000000
    63  N   -0.296316
    64  C    0.111637
    65  C    0.609619
    66  O   -0.538274
    67  H    0.000000
    68  H    0.000000
    69  H    0.000000
    70  N   -0.236531
    71  C    0.124253
    72  C    0.630010
    73  O   -0.557831
    74  H    0.000000
    75  H    0.000000
    76  H    0.000000
    77  N   -0.226335
    78  C    0.173249
    79  C    0.603015
    80  O   -0.582270
    81  C   -0.095838
    82  S   -0.377967
    83  H    0.000000
    84  H    0.000000
    85  H    0.000000
    86  H    0.000000
    87  N   -0.197302
    88  C    0.159724
    89  H    0.000000
    90  H    0.000000
    91  H    0.000000
    92  H    0.000000
    93  Zn   0.440872
 Sum of Mulliken charges=  -2.00000
 Entering OneElI...
 OneElI was handed785231306 working-precision words.
 Multipole integrals L=0 to 4 MinM= 0 MaxM= 0.
 Requested accuracy = 0.1000D-12
 PrsmSu:  NPrtUS=   1 ThrOK=F
 PRISM was handed   782894073 working-precision words and 26003 shell-pairs
 Electronic moments (au):
  -444.00000000     2.08005386     3.20451714    -4.63099911
-14183.67636792-13550.08902261 -5394.05030635    -7.05008533
   -34.66736612    19.07498558 -6339.38824135-25866.11321298
 -1098.63764797 14570.32919193 11482.84451361-10898.43609194
 -8443.69914471  -290.83776608 -3566.82433512 -3649.74279788
*********************************************-68959.12192693
 49524.74290519 46246.44611474-38195.21571500-19750.98920148
 14439.90819278*********************************************
 18337.96517193 -7120.72085398 23608.90477153
 Electronic spatial extent (au):  <R**2>= 33127.8157
 Nuclear    moments (au):
   442.00000000     0.00000000     0.00000000     0.00000000
 13833.86707008 13206.75817912  5107.35968964     0.00000000
     0.00000000     0.00000000  6591.31719088 26204.79880666
   808.38499774-14396.06576039-11282.39248585 10534.38022915
  8392.77338372   361.52419960  3616.99279592  3434.69097298
944151.86167848***************127138.78364980 66605.01904197
-50166.42501603-46196.31716724 40705.70376964 17961.15907351
-14226.26764131205271.75903807152396.62387726141344.38906020
-17703.51281340  6585.30923061-23365.96888249
 Total      moments (au):
    -2.00000000     2.08005386     3.20451714    -4.63099911
  -349.80929784  -343.33084349  -286.69061671    -7.05008533
   -34.66736612    19.07498558   251.92894953   338.68559367
  -290.25265023   174.26343154   200.45202776  -364.05586279
   -50.92576099    70.68643351    50.16846080  -215.05182490
-57517.39153856-55024.66847772-20261.45873852 -2354.10288496
  -641.68211084    50.12894750  2510.48805464 -1789.83012797
   213.64055147-18883.55643954-12739.47511113-11560.05153995
   634.45235853  -535.41162337   242.93588905
 Charge=    -2.0000 electrons
 Dipole moment (field-independent basis, Debye):
    X=     5.2870    Y=     8.1451    Z=   -11.7708  Tot=    15.2593
 Quadrupole moment (field-independent basis, Debye-Ang):
   XX=  -470.5055   YY=  -461.7917   ZZ=  -385.6087
   XY=    -9.4826   XZ=   -46.6288   YZ=    25.6565
 Traceless Quadrupole moment (field-independent basis, Debye-Ang):
   XX=   -31.2035   YY=   -22.4898   ZZ=    53.6933
   XY=    -9.4826   XZ=   -46.6288   YZ=    25.6565
 Octapole moment (field-independent basis, Debye-Ang**2):
  XXX=   179.3133  YYY=   241.0633  ZZZ=  -206.5906  XYY=   124.0340
  XXY=   142.6740  XXZ=  -259.1209  XZZ=   -36.2470  YZZ=    50.3119
  YYZ=    35.7080  XYZ=  -153.0656
 Hexadecapole moment (field-independent basis, Debye-Ang**3):
 XXXX=-21663.8059 YYYY=-20724.9269 ZZZZ= -7631.4363 XXXY=  -886.6680
 XXXZ=  -241.6882 YYYX=    18.8810 YYYZ=   945.5701 ZZZX=  -674.1358
 ZZZY=    80.4673 XXYY= -7112.4523 XXZZ= -4798.2968 YYZZ= -4354.0694
 XXYZ=   238.9652 YYXZ=  -201.6617 ZZXY=    91.5013
 N-N= 1.035786495343D+04 E-N=-3.425161784145D+04  KE= 5.660262758518D+03
 Entering OneElI...
 OneElI was handed783652778 working-precision words.
 Calculate electrostatic properties
    NBasis =   886  MinDer = 0  MaxDer = 0
    NGrid  =    93  NMatD  =   1
 Requested accuracy = 0.1000D-12
 PrsmSu:  NPrtUS=  12 ThrOK=T
 PRISM was handed    64651996 working-precision words and 20320 shell-pairs
 PRISM was handed    64651996 working-precision words and 20320 shell-pairs
 PRISM was handed    64651996 working-precision words and 20320 shell-pairs
 PRISM was handed    64651996 working-precision words and 20320 shell-pairs
 PRISM was handed    64651996 working-precision words and 20320 shell-pairs
 PRISM was handed    64651996 working-precision words and 20320 shell-pairs
 PRISM was handed    64651996 working-precision words and 20320 shell-pairs
 PRISM was handed    64651996 working-precision words and 20320 shell-pairs
 PRISM was handed    64651996 working-precision words and 20320 shell-pairs
 PRISM was handed    64651996 working-precision words and 20320 shell-pairs
 PRISM was handed    64651996 working-precision words and 20320 shell-pairs
 PRISM was handed    64651996 working-precision words and 20320 shell-pairs
 --------------------------------------------------------
       Center         ----      EFG at Nuclei      ----
                      3XX-RR        3YY-RR        3ZZ-RR
 --------------------------------------------------------
     1   Atom       -0.209597      0.104378      0.105219
     2   Atom        0.004516     -0.006104      0.001588
     3   Atom        0.133782      0.010188     -0.143970
     4   Atom       -0.113238      0.162846     -0.049608
     5   Atom       -0.006362      0.129427     -0.123066
     6   Atom        0.063223     -0.097530      0.034307
     7   Atom       -0.426976      0.100903      0.326073
     8   Atom        0.185007     -0.100327     -0.084680
     9   Atom       -0.091516     -0.070436      0.161952
    10   Atom       -0.271019     -0.734319      1.005337
    11   Atom        0.010786     -0.049432      0.038646
    12   Atom        0.990614     -1.269961      0.279347
    13   Atom       -0.174710      0.065216      0.109494
    14   Atom       -0.070326     -0.049872      0.120198
    15   Atom        0.143585      0.108197     -0.251781
    16   Atom       -0.111903     -0.020270      0.132173
    17   Atom        0.152620      0.248538     -0.401158
    18   Atom        0.086833      0.094216     -0.181049
    19   Atom       -0.066134      0.098296     -0.032163
    20   Atom       -0.214579      0.120785      0.093794
    21   Atom       -0.002611     -0.081422      0.084034
    22   Atom        0.155338     -0.294115      0.138777
    23   Atom       -0.251594      0.149648      0.101946
    24   Atom        0.023858     -0.023729     -0.000129
    25   Atom       -0.152706      0.177830     -0.025124
    26   Atom       -0.443918     -0.060495      0.504413
    27   Atom       -0.002023      0.145917     -0.143894
    28   Atom        0.136045     -0.133483     -0.002562
    29   Atom        0.337159     -0.301951     -0.035207
    30   Atom        0.151078     -0.156256      0.005178
    31   Atom       -0.022513      0.219590     -0.197077
    32   Atom        0.763675     -0.735500     -0.028175
    33   Atom       -0.132875      0.093939      0.038936
    34   Atom       -1.791382      0.627152      1.164230
    35   Atom        0.025508     -0.130040      0.104532
    36   Atom       -0.235589      0.092022      0.143567
    37   Atom        0.145034     -0.196325      0.051290
    38   Atom       -0.017532     -0.027097      0.044629
    39   Atom       -0.107303     -0.272795      0.380098
    40   Atom       -0.008244     -0.010512      0.018756
    41   Atom       -0.034478     -0.019175      0.053653
    42   Atom       -0.174715     -0.698742      0.873457
    43   Atom        0.132646     -0.321770      0.189125
    44   Atom        0.031727      0.048435     -0.080162
    45   Atom        0.004255     -0.077477      0.073222
    46   Atom        0.267698      0.084082     -0.351780
    47   Atom        0.010828      0.051754     -0.062582
    48   Atom        0.189752      0.064904     -0.254656
    49   Atom       -0.816227      1.105344     -0.289117
    50   Atom        0.018205      0.077258     -0.095462
    51   Atom        0.041455     -0.150435      0.108980
    52   Atom        0.004974     -0.081337      0.076362
    53   Atom       -0.270028     -0.357119      0.627148
    54   Atom       -0.011473     -0.042220      0.053693
    55   Atom        0.099939     -0.269224      0.169285
    56   Atom        1.155718     -0.259597     -0.896121
    57   Atom        0.099780     -0.047827     -0.051953
    58   Atom        0.851540      0.298486     -1.150026
    59   Atom       -0.313730      0.122602      0.191128
    60   Atom        0.109847      0.111369     -0.221215
    61   Atom        0.033612     -0.010930     -0.022682
    62   Atom       -0.202804      0.124523      0.078281
    63   Atom       -0.308397      0.642216     -0.333819
    64   Atom       -0.185094      0.154016      0.031079
    65   Atom       -0.091834     -0.060428      0.152262
    66   Atom       -0.256233      0.649636     -0.393403
    67   Atom       -0.076231      0.091952     -0.015721
    68   Atom        0.165683      0.158838     -0.324521
    69   Atom        0.078187     -0.188411      0.110224
    70   Atom        0.226717      0.075418     -0.302134
    71   Atom        0.141483     -0.026401     -0.115082
    72   Atom       -0.101312     -0.099112      0.200424
    73   Atom        0.161829      0.353842     -0.515671
    74   Atom        0.046727      0.171913     -0.218640
    75   Atom       -0.163827      0.047626      0.116200
    76   Atom       -0.054507     -0.050574      0.105082
    77   Atom        0.173281      0.121964     -0.295245
    78   Atom        0.053636     -0.026550     -0.027085
    79   Atom       -0.026881     -0.122616      0.149497
    80   Atom        0.656157      0.176921     -0.833078
    81   Atom       -0.120858      0.000726      0.120132
    82   Atom       -1.191752      0.544618      0.647134
    83   Atom        0.115294      0.170183     -0.285478
    84   Atom        0.105325      0.004967     -0.110291
    85   Atom        0.114073      0.059162     -0.173235
    86   Atom        0.117137     -0.068447     -0.048690
    87   Atom       -0.063458      0.333431     -0.269973
    88   Atom       -0.083477     -0.018377      0.101854
    89   Atom       -0.028775      0.057677     -0.028902
    90   Atom        0.037597      0.108635     -0.146231
    91   Atom        0.165268      0.152500     -0.317768
    92   Atom        0.083086     -0.154351      0.071265
    93   Atom        0.086658     -0.193921      0.107262
 --------------------------------------------------------
                        XY            XZ            YZ
 --------------------------------------------------------
     1   Atom        0.123085      0.127012     -0.051120
     2   Atom        0.002787      0.014626     -0.027124
     3   Atom       -0.034451     -0.020073      0.255008
     4   Atom        0.992209      0.674170      0.617212
     5   Atom        0.055210     -0.206869      0.072292
     6   Atom       -0.149452      0.101904      0.167966
     7   Atom       -0.004511      0.069523     -0.633457
     8   Atom       -0.083154     -0.024730     -0.205545
     9   Atom       -0.222790     -0.087258     -0.168653
    10   Atom        0.171837     -0.840587      0.138868
    11   Atom       -0.049400      0.028482     -0.095813
    12   Atom        0.159421     -0.259752     -1.834919
    13   Atom        0.199637      0.178742     -0.140394
    14   Atom        0.203809     -0.040601      0.033207
    15   Atom       -0.013735      0.032186      0.123341
    16   Atom        0.205077     -0.069898      0.052282
    17   Atom        0.477645      0.300991      0.291468
    18   Atom       -0.021004      0.059570      0.104806
    19   Atom       -0.110465     -0.192363     -0.093470
    20   Atom        0.111202      0.132255     -0.033718
    21   Atom        0.247758     -0.090481      0.153228
    22   Atom        0.011423     -0.000216      0.015236
    23   Atom        0.015844      0.138301     -0.008123
    24   Atom        0.031379     -0.000149     -0.049984
    25   Atom        0.140315     -0.206977      0.094194
    26   Atom       -0.565089     -0.496271      0.971413
    27   Atom        0.011763     -0.214381      0.013308
    28   Atom       -0.059200      0.043037      0.202022
    29   Atom       -0.171227      0.473550     -0.334733
    30   Atom        0.041720     -0.017284     -0.144371
    31   Atom       -0.000599      0.223957     -0.083664
    32   Atom       -0.571682      0.859851     -0.262714
    33   Atom       -0.109879      0.030189      0.013225
    34   Atom       -1.191011      0.237843     -0.257710
    35   Atom       -0.224395      0.125961      0.116363
    36   Atom       -0.131402     -0.037204     -0.016570
    37   Atom       -0.010569     -0.002960     -0.181719
    38   Atom        0.168789     -0.127335      0.135056
    39   Atom        0.025262     -0.583384      0.190051
    40   Atom        0.186894     -0.084136      0.102688
    41   Atom       -0.285820     -0.133725     -0.070806
    42   Atom        0.097870     -0.931538      0.218382
    43   Atom       -0.123446     -0.031820      0.001279
    44   Atom       -0.098647     -0.163554     -0.146903
    45   Atom       -0.167994      0.103989      0.132407
    46   Atom        0.500623      0.412619      0.170942
    47   Atom        0.020109      0.186048     -0.102847
    48   Atom        0.007080     -0.136873     -0.159861
    49   Atom        0.406727     -0.176672     -0.772184
    50   Atom       -0.097827     -0.170918     -0.135624
    51   Atom        0.237600     -0.053230      0.127459
    52   Atom        0.177282     -0.091352      0.118836
    53   Atom       -0.024930      0.280703      0.462360
    54   Atom       -0.150166      0.058473      0.084495
    55   Atom        0.142531      0.145399     -0.109855
    56   Atom        0.723562      0.223442      0.195026
    57   Atom        0.078299      0.038963     -0.052728
    58   Atom        0.043195      0.818148     -1.744247
    59   Atom        0.105698      0.091468      0.010874
    60   Atom        0.025391      0.115150     -0.111939
    61   Atom       -0.131081      0.144017      0.167574
    62   Atom       -0.071445     -0.149987     -0.029650
    63   Atom       -0.436969     -0.224290      0.393376
    64   Atom       -0.065083     -0.155609     -0.070793
    65   Atom       -0.183965      0.128677      0.111153
    66   Atom       -0.659186     -0.562757      0.859512
    67   Atom       -0.121817      0.181315      0.099618
    68   Atom       -0.011158     -0.044418      0.184578
    69   Atom        0.142587     -0.052444      0.107393
    70   Atom        0.570493     -0.249652     -0.281203
    71   Atom        0.034146      0.093730     -0.213592
    72   Atom        0.215059      0.048231     -0.064399
    73   Atom        0.893424     -0.640295     -0.607741
    74   Atom        0.069065     -0.249688      0.047196
    75   Atom       -0.176762     -0.085777     -0.059260
    76   Atom        0.200969     -0.076902      0.071006
    77   Atom       -0.606982     -0.099096      0.225872
    78   Atom       -0.076516      0.083457      0.204383
    79   Atom       -0.262419      0.005357     -0.118495
    80   Atom       -0.980562     -0.309566      0.279218
    81   Atom        0.052393     -0.080203      0.016465
    82   Atom        1.549336     -0.747836      0.292052
    83   Atom       -0.053467     -0.174357     -0.035834
    84   Atom        0.072982      0.107579     -0.180049
    85   Atom        0.043141      0.087010     -0.166578
    86   Atom       -0.078116      0.068466      0.209592
    87   Atom        0.689707      0.090672      0.130997
    88   Atom        0.177264     -0.060339      0.042121
    89   Atom       -0.117394     -0.181982     -0.127253
    90   Atom        0.075557      0.175375     -0.107493
    91   Atom        0.049534     -0.036316      0.141857
    92   Atom       -0.128851      0.067484      0.160389
    93   Atom       -0.023166      0.084344     -0.046595
 --------------------------------------------------------


 ---------------------------------------------------------------------------------
              Nuclear Quadrupole in Principal Axis System
 ---------------------------------------------------------------------------------

       Atom             a.u.   MegaHertz   Gauss  10(-4) cm-1        Axes

              Baa    -0.2984  -159.228   -56.817   -53.113  0.8936 -0.3138 -0.3209
     1 H(1)   Bbb     0.1423    75.929    27.093    25.327  0.4451  0.7112  0.5440
              Bcc     0.1561    83.300    29.723    27.786  0.0575 -0.6290  0.7753
 
              Baa    -0.0334    -4.482    -1.599    -1.495 -0.3050  0.6867  0.6598
     2 C(13)  Bbb     0.0044     0.594     0.212     0.198  0.8718  0.4802 -0.0969
              Bcc     0.0290     3.888     1.387     1.297  0.3834 -0.5457  0.7451
 
              Baa    -0.3333   -44.730   -15.961   -14.920 -0.0095 -0.5966  0.8025
     3 C(13)  Bbb     0.1152    15.459     5.516     5.157  0.9050  0.3362  0.2607
              Bcc     0.2181    29.272    10.445     9.764 -0.4253  0.7287  0.5367
 
              Baa    -0.9967    72.122    25.735    24.057  0.7934 -0.5792 -0.1873
     4 O(17)  Bbb    -0.5484    39.683    14.160    13.237 -0.1670 -0.5030  0.8480
              Bcc     1.5451  -111.805   -39.895   -37.294  0.5854  0.6415  0.4958
 
              Baa    -0.2990  -159.515   -56.919   -53.209  0.5905 -0.2077  0.7798
     5 H(1)   Bbb     0.1486    79.312    28.301    26.456 -0.0653  0.9509  0.3027
              Bcc     0.1503    80.203    28.619    26.753  0.8044  0.2296 -0.5479
 
              Baa    -0.3017  -160.979   -57.441   -53.697  0.4441  0.7403 -0.5047
     6 H(1)   Bbb     0.1488    79.407    28.334    26.487 -0.0013  0.5639  0.8259
              Bcc     0.1529    81.572    29.107    27.209  0.8960 -0.3661  0.2514
 
              Baa    -0.4708   -18.159    -6.479    -6.057  0.7045 -0.5244 -0.4783
     7 N(14)  Bbb    -0.3885   -14.984    -5.347    -4.998  0.7084  0.5610  0.4284
              Bcc     0.8593    33.142    11.826    11.055  0.0437 -0.6406  0.7666
 
              Baa    -0.3103   -41.636   -14.857   -13.888  0.1549  0.7218  0.6746
     8 C(13)  Bbb     0.0977    13.106     4.677     4.372 -0.3620 -0.5939  0.7185
              Bcc     0.2126    28.530    10.180     9.517  0.9192 -0.3555  0.1693
 
              Baa    -0.3660   -49.109   -17.523   -16.381  0.6561  0.6806  0.3259
     9 C(13)  Bbb     0.1121    15.038     5.366     5.016  0.7442 -0.5120 -0.4291
              Bcc     0.2539    34.071    12.157    11.365  0.1252 -0.5241  0.8424
 
              Baa    -0.9287    67.201    23.979    22.416 -0.5912  0.7444 -0.3104
    10 O(17)  Bbb    -0.4949    35.812    12.779    11.946  0.6743  0.6674  0.3161
              Bcc     1.4236  -103.013   -36.758   -34.361 -0.4424  0.0225  0.8965
 
              Baa    -0.1168   -15.671    -5.592    -5.227  0.2207  0.8478  0.4822
    11 C(13)  Bbb    -0.0066    -0.892    -0.318    -0.297  0.8810  0.0389 -0.4716
              Bcc     0.1234    16.563     5.910     5.525  0.4186 -0.5289  0.7383
 
              Baa    -2.4871  -101.968   -36.385   -34.013  0.0031  0.8332  0.5529
    12 S(33)  Bbb     0.8477    34.753    12.401    11.592  0.9052 -0.2373  0.3525
              Bcc     1.6394    67.215    23.984    22.420 -0.4250 -0.4994  0.7550
 
              Baa    -0.3893  -207.712   -74.117   -69.285  0.7805 -0.4701 -0.4120
    13 H(1)   Bbb     0.1596    85.137    30.379    28.399  0.6238  0.6284  0.4647
              Bcc     0.2297   122.575    43.738    40.887  0.0405 -0.6197  0.7838
 
              Baa    -0.2712  -144.676   -51.624   -48.259  0.7191 -0.6822  0.1325
    14 H(1)   Bbb     0.1263    67.406    24.052    22.484  0.0543  0.2452  0.9680
              Bcc     0.1448    77.270    27.572    25.775  0.6928  0.6888 -0.2134
 
              Baa    -0.2928  -156.205   -55.738   -52.104 -0.0795 -0.2956  0.9520
    15 H(1)   Bbb     0.1428    76.190    27.187    25.414  0.7068  0.6567  0.2629
              Bcc     0.1500    80.015    28.551    26.690  0.7029 -0.6938 -0.1567
 
              Baa    -0.2941  -156.905   -55.987   -52.338  0.7654 -0.6115  0.2005
    16 H(1)   Bbb     0.1429    76.250    27.208    25.434  0.5216  0.7719  0.3635
              Bcc     0.1512    80.655    28.780    26.904 -0.3771 -0.1736  0.9098
 
              Baa    -0.5465   -21.076    -7.520    -7.030 -0.2877 -0.1725  0.9420
    17 N(14)  Bbb    -0.2770   -10.682    -3.812    -3.563  0.7117 -0.6967  0.0898
              Bcc     0.8234    31.758    11.332    10.593  0.6408  0.6963  0.3232
 
              Baa    -0.2290   -30.735   -10.967   -10.252 -0.1961 -0.3139  0.9290
    18 C(13)  Bbb     0.0994    13.344     4.761     4.451  0.9802 -0.0362  0.1946
              Bcc     0.1296    17.391     6.206     5.801 -0.0274  0.9488  0.3148
 
              Baa    -0.2954  -157.599   -56.235   -52.569  0.6953  0.3448  0.6306
    19 H(1)   Bbb     0.1412    75.341    26.884    25.131 -0.4788 -0.4322  0.7642
              Bcc     0.1542    82.258    29.352    27.438 -0.5360  0.8333  0.1354
 
              Baa    -0.2958  -157.842   -56.322   -52.650  0.9049 -0.2683 -0.3304
    20 H(1)   Bbb     0.1394    74.398    26.547    24.817  0.1967 -0.4249  0.8836
              Bcc     0.1564    83.444    29.775    27.834  0.3774  0.8646  0.3317
 
              Baa    -0.3620  -193.160   -68.924   -64.431 -0.5888  0.7202 -0.3668
    21 H(1)   Bbb     0.1410    75.231    26.844    25.094 -0.5182  0.0120  0.8552
              Bcc     0.2210   117.929    42.080    39.337  0.6203  0.6936  0.3661
 
              Baa    -0.2949  -157.366   -56.152   -52.492 -0.0254  0.9991 -0.0351
    22 H(1)   Bbb     0.1393    74.329    26.523    24.794 -0.0114  0.0348  0.9993
              Bcc     0.1556    83.037    29.630    27.698  0.9996  0.0257  0.0105
 
              Baa    -0.3000  -160.044   -57.108   -53.385  0.9446 -0.0392 -0.3258
    23 H(1)   Bbb     0.1474    78.667    28.070    26.240  0.2706  0.6546  0.7058
              Bcc     0.1525    81.377    29.037    27.144 -0.1857  0.7549 -0.6290
 
              Baa    -0.0699    -9.385    -3.349    -3.131 -0.2617  0.7850  0.5615
    24 C(13)  Bbb     0.0155     2.076     0.741     0.692  0.7526 -0.1982  0.6279
              Bcc     0.0545     7.310     2.608     2.438  0.6042  0.5869 -0.5389
 
              Baa    -0.3586   -48.126   -17.173   -16.053  0.7702 -0.3002  0.5628
    25 C(13)  Bbb     0.1272    17.066     6.090     5.693 -0.5722  0.0647  0.8176
              Bcc     0.2315    31.060    11.083    10.361  0.2819  0.9517  0.1220
 
              Baa    -0.9043    65.435    23.349    21.827  0.5848  0.7493 -0.3107
    26 O(17)  Bbb    -0.6078    43.980    15.693    14.670  0.7300 -0.3191  0.6044
              Bcc     1.5121  -109.415   -39.042   -36.497 -0.3538  0.5803  0.7336
 
              Baa    -0.2995  -159.784   -57.015   -53.298  0.5853 -0.0397  0.8099
    27 H(1)   Bbb     0.1462    77.987    27.828    26.014 -0.1816  0.9670  0.1786
              Bcc     0.1533    81.797    29.187    27.285  0.7902  0.2517 -0.5588
 
              Baa    -0.2929  -156.264   -55.759   -52.124  0.1682  0.7973 -0.5797
    28 H(1)   Bbb     0.1443    77.013    27.480    25.689  0.0020  0.5878  0.8090
              Bcc     0.1485    79.251    28.279    26.435  0.9857 -0.1373  0.0972
 
              Baa    -0.5557   -21.432    -7.647    -7.149 -0.2092  0.7248  0.6564
    29 N(14)  Bbb    -0.2090    -8.062    -2.877    -2.689  0.6163  0.6189 -0.4870
              Bcc     0.7647    29.494    10.524     9.838  0.7593 -0.3027  0.5761
 
              Baa    -0.2428   -32.588   -11.628   -10.870 -0.0697  0.8643  0.4982
    30 C(13)  Bbb     0.0736     9.878     3.525     3.295  0.4110 -0.4302  0.8037
              Bcc     0.1692    22.709     8.103     7.575  0.9090  0.2608 -0.3252
 
              Baa    -0.3584   -48.094   -17.161   -16.042 -0.5507  0.1190  0.8262
    31 C(13)  Bbb     0.1114    14.943     5.332     4.984  0.7960  0.3730  0.4768
              Bcc     0.2470    33.151    11.829    11.058 -0.2514  0.9202 -0.3001
 
              Baa    -0.9301    67.300    24.014    22.449  0.3444  0.9372 -0.0554
    32 O(17)  Bbb    -0.5591    40.456    14.436    13.495 -0.4627  0.2208  0.8586
              Bcc     1.4892  -107.756   -38.450   -35.944  0.8169 -0.2701  0.5097
 
              Baa    -0.1823   -24.460    -8.728    -8.159  0.9166  0.3717 -0.1473
    33 C(13)  Bbb     0.0438     5.882     2.099     1.962  0.1402  0.0463  0.9890
              Bcc     0.1384    18.578     6.629     6.197 -0.3744  0.9272  0.0096
 
              Baa    -2.2838   -93.634   -33.411   -31.233  0.9260  0.3757 -0.0358
    34 S(33)  Bbb     0.8124    33.307    11.885    11.110 -0.2539  0.6904  0.6774
              Bcc     1.4714    60.327    21.526    20.123  0.2792 -0.6182  0.7348
 
              Baa    -0.3518  -187.706   -66.978   -62.612  0.5622  0.7508 -0.3466
    35 H(1)   Bbb     0.1416    75.529    26.951    25.194 -0.3206  0.5843  0.7455
              Bcc     0.2102   112.176    40.027    37.418  0.7623 -0.3080  0.5693
 
              Baa    -0.2856  -152.393   -54.378   -50.833  0.9390  0.3309  0.0942
    36 H(1)   Bbb     0.1372    73.184    26.114    24.411 -0.3436  0.8887  0.3035
              Bcc     0.1485    79.210    28.264    26.421  0.0167 -0.3174  0.9482
 
              Baa    -0.2927  -156.153   -55.719   -52.087  0.0245  0.8838  0.4672
    37 H(1)   Bbb     0.1438    76.720    27.375    25.591  0.8386  0.2362 -0.4908
              Bcc     0.1489    79.433    28.344    26.496  0.5442 -0.4038  0.7354
 
              Baa    -0.2932  -156.413   -55.812   -52.174 -0.6086  0.6306 -0.4816
    38 H(1)   Bbb     0.1441    76.883    27.434    25.645  0.7474  0.2518 -0.6148
              Bcc     0.1491    79.531    28.378    26.529  0.2664  0.7341  0.6246
 
              Baa    -0.5556   -21.429    -7.646    -7.148  0.7258 -0.4272  0.5392
    39 N(14)  Bbb    -0.2328    -8.980    -3.204    -2.995  0.4288  0.8939  0.1310
              Bcc     0.7885    30.409    10.851    10.143 -0.5380  0.1362  0.8319
 
              Baa    -0.2592   -34.780   -12.410   -11.601 -0.6276  0.6492 -0.4298
    40 C(13)  Bbb     0.0802    10.768     3.842     3.592 -0.3850  0.2211  0.8961
              Bcc     0.1789    24.012     8.568     8.010  0.6767  0.7278  0.1111
 
              Baa    -0.3636   -48.796   -17.412   -16.277  0.6918  0.6420  0.3306
    41 C(13)  Bbb     0.0944    12.673     4.522     4.227 -0.0689 -0.3971  0.9152
              Bcc     0.2692    36.123    12.890    12.049  0.7188 -0.6559 -0.2305
 
              Baa    -0.9081    65.709    23.447    21.918 -0.5985  0.6952 -0.3982
    42 O(17)  Bbb    -0.5193    37.576    13.408    12.534  0.6271  0.7158  0.3072
              Bcc     1.4274  -103.285   -36.855   -34.452 -0.4986  0.0658  0.8644
 
              Baa    -0.3532  -188.462   -67.248   -62.864  0.2470  0.9689  0.0122
    43 H(1)   Bbb     0.1430    76.302    27.227    25.452  0.8017 -0.2114  0.5590
              Bcc     0.2102   112.159    40.021    37.412 -0.5443  0.1283  0.8290
 
              Baa    -0.2896  -154.534   -55.142   -51.547  0.5108  0.4636  0.7240
    44 H(1)   Bbb     0.1388    74.076    26.432    24.709 -0.5898  0.8016 -0.0972
              Bcc     0.1508    80.458    28.709    26.838 -0.6254 -0.3774  0.6829
 
              Baa    -0.2880  -153.652   -54.827   -51.253  0.5600  0.7127 -0.4225
    45 H(1)   Bbb     0.1363    72.713    25.946    24.255  0.7871 -0.6168  0.0029
              Bcc     0.1517    80.939    28.881    26.998  0.2585  0.3342  0.9064
 
              Baa    -0.5708   -22.015    -7.855    -7.343 -0.5177  0.1773  0.8370
    46 N(14)  Bbb    -0.2687   -10.361    -3.697    -3.456 -0.4182  0.8010 -0.4283
              Bcc     0.8395    32.376    11.553    10.799  0.7464  0.5717  0.3406
 
              Baa    -0.2448   -32.848   -11.721   -10.957 -0.5764  0.3024  0.7592
    47 C(13)  Bbb     0.0591     7.926     2.828     2.644  0.5017  0.8642  0.0367
              Bcc     0.1857    24.922     8.893     8.313  0.6450 -0.4020  0.6498
 
              Baa    -0.3497   -46.922   -16.743   -15.651  0.2264  0.3471  0.9101
    48 C(13)  Bbb     0.1029    13.808     4.927     4.606 -0.4288  0.8745 -0.2268
              Bcc     0.2468    33.114    11.816    11.045  0.8746  0.3389 -0.3468
 
              Baa    -0.9000    65.124    23.238    21.723  0.9825 -0.1751  0.0629
    49 O(17)  Bbb    -0.6322    45.747    16.324    15.260  0.0134  0.4035  0.9149
              Bcc     1.5322  -110.871   -39.561   -36.982  0.1855  0.8981 -0.3988
 
              Baa    -0.2941  -156.896   -55.984   -52.335  0.5334  0.4106  0.7395
    50 H(1)   Bbb     0.1415    75.493    26.938    25.182  0.8110 -0.0001 -0.5850
              Bcc     0.1526    81.403    29.047    27.153 -0.2402  0.9118 -0.3331
 
              Baa    -0.3507  -187.140   -66.776   -62.423 -0.5248  0.8027 -0.2833
    51 H(1)   Bbb     0.1382    73.750    26.316    24.600 -0.4635  0.0097  0.8860
              Bcc     0.2125   113.390    40.460    37.823  0.7140  0.5963  0.3669
 
              Baa    -0.2831  -151.066   -53.904   -50.390 -0.5691  0.7266 -0.3848
    52 H(1)   Bbb     0.1385    73.886    26.364    24.646 -0.4239  0.1417  0.8945
              Bcc     0.1447    77.179    27.540    25.744  0.7045  0.6723  0.2274
 
              Baa    -0.5970   -23.026    -8.216    -7.681  0.4084  0.8191 -0.4030
    53 N(14)  Bbb    -0.2696   -10.397    -3.710    -3.468  0.8863 -0.4614 -0.0396
              Bcc     0.8666    33.423    11.926    11.149  0.2183  0.3410  0.9144
 
              Baa    -0.2163   -29.029   -10.358    -9.683  0.6166  0.7034 -0.3536
    54 C(13)  Bbb     0.0879    11.800     4.211     3.936  0.4668  0.0350  0.8836
              Bcc     0.1284    17.229     6.148     5.747 -0.6340  0.7099  0.3068
 
              Baa    -0.3624   -48.630   -17.352   -16.221 -0.3627  0.8880  0.2827
    55 C(13)  Bbb     0.0783    10.507     3.749     3.505  0.6940  0.4598 -0.5540
              Bcc     0.2841    38.123    13.603    12.717  0.6219  0.0047  0.7831
 
              Baa    -0.9514    68.841    24.564    22.963 -0.0139 -0.2578  0.9661
    56 O(17)  Bbb    -0.5420    39.219    13.994    13.082 -0.4070  0.8840  0.2300
              Bcc     1.4934  -108.061   -38.559   -36.045  0.9133  0.3900  0.1172
 
              Baa    -0.1327   -17.802    -6.352    -5.938 -0.3414  0.7029  0.6240
    57 C(13)  Bbb    -0.0022    -0.299    -0.107    -0.100  0.1694 -0.6070  0.7764
              Bcc     0.1349    18.101     6.459     6.038  0.9245  0.3707  0.0882
 
              Baa    -2.4660  -101.105   -36.077   -33.725 -0.2104  0.5240  0.8253
    58 S(33)  Bbb     0.7628    31.275    11.160    10.432  0.8423  0.5257 -0.1191
              Bcc     1.7032    69.829    24.917    23.293 -0.4963  0.6701 -0.5520
 
              Baa    -0.3519  -187.749   -66.993   -62.626  0.9645 -0.2112 -0.1582
    59 H(1)   Bbb     0.1337    71.341    25.456    23.797  0.1358  0.9112 -0.3889
              Bcc     0.2182   116.407    41.537    38.829  0.2263  0.3536  0.9076
 
              Baa    -0.2900  -154.708   -55.204   -51.605 -0.2822  0.2743  0.9193
    60 H(1)   Bbb     0.1360    72.568    25.894    24.206  0.6985  0.7156  0.0009
              Bcc     0.1539    82.140    29.309    27.399  0.6577 -0.6424  0.3935
 
              Baa    -0.2986  -159.304   -56.844   -53.138 -0.5056 -0.5946  0.6251
    61 H(1)   Bbb     0.1441    76.876    27.431    25.643 -0.6958  0.7094  0.1119
              Bcc     0.1545    82.428    29.412    27.495  0.5100  0.3784  0.7725
 
              Baa    -0.2825  -150.730   -53.784   -50.278  0.9016  0.1867  0.3902
    62 H(1)   Bbb     0.1389    74.111    26.445    24.721 -0.0618  0.9484 -0.3110
              Bcc     0.1436    76.619    27.340    25.557 -0.4281  0.2563  0.8666
 
              Baa    -0.5462   -21.067    -7.517    -7.027  0.7178  0.0337  0.6955
    63 N(14)  Bbb    -0.4209   -16.234    -5.793    -5.415 -0.5977 -0.4826  0.6403
              Bcc     0.9672    37.301    13.310    12.442 -0.3572  0.8752  0.3262
 
              Baa    -0.2852   -38.274   -13.657   -12.767  0.8599  0.2029  0.4684
    64 C(13)  Bbb     0.0988    13.257     4.730     4.422 -0.5099  0.3851  0.7692
              Bcc     0.1864    25.017     8.927     8.345  0.0243  0.9003 -0.4346
 
              Baa    -0.3217   -43.171   -15.405   -14.400  0.6961  0.6337 -0.3376
    65 C(13)  Bbb     0.1083    14.531     5.185     4.847 -0.6613  0.7489  0.0422
              Bcc     0.2134    28.641    10.220     9.553  0.2795  0.1939  0.9404
 
              Baa    -0.9561    69.184    24.687    23.077  0.4207 -0.2878  0.8603
    66 O(17)  Bbb    -0.5829    42.176    15.050    14.069  0.7987  0.5672 -0.2008
              Bcc     1.5390  -111.361   -39.736   -37.146 -0.4302  0.7716  0.4685
 
              Baa    -0.2940  -156.838   -55.964   -52.316  0.7081  0.3776 -0.5967
    67 H(1)   Bbb     0.1375    73.368    26.179    24.473  0.6002  0.1231  0.7903
              Bcc     0.1564    83.470    29.784    27.843 -0.3718  0.9178  0.1394
 
              Baa    -0.3896  -207.882   -74.177   -69.342  0.0693 -0.3169  0.9459
    68 H(1)   Bbb     0.1586    84.615    30.193    28.224  0.9279  0.3688  0.0556
              Bcc     0.2310   123.267    43.985    41.117 -0.3665  0.8738  0.3196
 
              Baa    -0.2863  -152.736   -54.500   -50.947 -0.3846  0.8769 -0.2884
    69 H(1)   Bbb     0.1372    73.190    26.116    24.413  0.7395  0.4796  0.4724
              Bcc     0.1491    79.547    28.384    26.534 -0.5525  0.0316  0.8329
 
              Baa    -0.4686   -18.072    -6.449    -6.028 -0.3123  0.6737  0.6698
    70 N(14)  Bbb    -0.3792   -14.625    -5.218    -4.878  0.6337 -0.3775  0.6752
              Bcc     0.8478    32.697    11.667    10.907  0.7078  0.6353 -0.3090
 
              Baa    -0.3087   -41.428   -14.782   -13.819 -0.2059  0.6061  0.7682
    71 C(13)  Bbb     0.1217    16.325     5.825     5.446  0.6128  0.6920 -0.3817
              Bcc     0.1871    25.102     8.957     8.373  0.7630 -0.3922  0.5139
 
              Baa    -0.3273   -43.919   -15.671   -14.650 -0.6982  0.7002  0.1493
    72 C(13)  Bbb     0.1135    15.233     5.436     5.081  0.7155  0.6893  0.1137
              Bcc     0.2138    28.686    10.236     9.569  0.0233 -0.1862  0.9822
 
[...]
 2307 Fit      -0.154462
 2308 Fit      -0.164873
 2309 Fit      -0.141055
 2310 Fit      -0.142122
 2311 Fit      -0.144171
 2312 Fit      -0.148078
 2313 Fit      -0.154721
 2314 Fit      -0.165786
 2315 Fit      -0.142885
 2316 Fit      -0.145690
 2317 Fit      -0.150189
 2318 Fit      -0.157565
 2319 Fit      -0.168243
 2320 Fit      -0.147488
 2321 Fit      -0.153895
 2322 Fit      -0.122948
 2323 Fit      -0.136660
 2324 Fit      -0.153581
 2325 Fit      -0.157119
 2326 Fit      -0.162693
 2327 Fit      -0.164192
 2328 Fit      -0.158927
 2329 Fit      -0.159677
 2330 Fit      -0.162638
 2331 Fit      -0.168505
 2332 Fit      -0.163183
 2333 Fit      -0.162866
 2334 Fit      -0.163540
 2335 Fit      -0.174022
 2336 Fit      -0.167708
 2337 Fit      -0.166162
 2338 Fit      -0.168057
 2339 Fit      -0.179418
 2340 Fit      -0.171877
 2341 Fit      -0.170788
 2342 Fit      -0.175489
 2343 Fit      -0.110014
 2344 Fit      -0.098048
 2345 Fit      -0.104592
 2346 Fit      -0.116608
 2347 Fit      -0.101736
 2348 Fit      -0.106377
 2349 Fit      -0.115356
 2350 Fit      -0.115094
 2351 Fit      -0.115659
 2352 Fit      -0.119925
 2353 Fit      -0.150583
 2354 Fit      -0.166106
 2355 Fit      -0.135035
 2356 Fit      -0.127775
 2357 Fit      -0.122430
 2358 Fit      -0.130423
 2359 Fit      -0.128161
 2360 Fit      -0.130676
 2361 Fit      -0.138711
 2362 Fit      -0.141870
 2363 Fit      -0.139209
 2364 Fit      -0.146439
 2365 Fit      -0.155469
 2366 Fit      -0.151877
 2367 Fit      -0.150840
 2368 Fit      -0.146986
 2369 Fit      -0.141007
 2370 Fit      -0.124027
 2371 Fit      -0.113461
 2372 Fit      -0.107864
 2373 Fit      -0.134177
 2374 Fit      -0.146048
 2375 Fit      -0.105321
 2376 Fit      -0.106847
 2377 Fit      -0.111206
 2378 Fit      -0.117927
 2379 Fit      -0.120321
 2380 Fit      -0.107572
 2381 Fit      -0.107161
 2382 Fit      -0.111373
 2383 Fit      -0.113393
 2384 Fit      -0.110808
 2385 Fit      -0.145675
 2386 Fit      -0.148918
 2387 Fit      -0.155216
 2388 Fit      -0.161246
 2389 Fit      -0.160877
 2390 Fit      -0.123836
 2391 Fit      -0.128026
 2392 Fit      -0.132521
 2393 Fit      -0.136489
 2394 Fit      -0.135923
 2395 Fit      -0.129424
 2396 Fit      -0.114865
 2397 Fit      -0.119267
 2398 Fit      -0.121804
 2399 Fit      -0.118289
 2400 Fit      -0.113921
 2401 Fit      -0.134781
 2402 Fit      -0.117542
 2403 Fit      -0.118659
 2404 Fit      -0.107732
 2405 Fit      -0.108328
 2406 Fit      -0.110490
 2407 Fit      -0.109504
 2408 Fit      -0.103769
 2409 Fit      -0.104062
 2410 Fit      -0.106985
 2411 Fit      -0.104573
 2412 Fit      -0.110443
 2413 Fit      -0.136936
 2414 Fit      -0.120868
 2415 Fit      -0.123291
 2416 Fit      -0.134514
 2417 Fit      -0.113217
 2418 Fit      -0.111520
 2419 Fit      -0.113479
 2420 Fit      -0.120893
 2421 Fit      -0.134837
 2422 Fit      -0.107932
 2423 Fit      -0.107972
 2424 Fit      -0.112502
 2425 Fit      -0.121807
 2426 Fit      -0.113333
 2427 Fit      -0.127607
 2428 Fit      -0.129877
 2429 Fit      -0.143318
 2430 Fit      -0.122860
 2431 Fit      -0.123720
 2432 Fit      -0.132906
 2433 Fit      -0.152459
 2434 Fit      -0.123543
 2435 Fit      -0.122636
 2436 Fit      -0.128111
 2437 Fit      -0.143153
 2438 Fit      -0.128712
 2439 Fit      -0.127244
 2440 Fit      -0.132866
 2441 Fit      -0.149883
 2442 Fit      -0.137439
 2443 Fit      -0.148348
 2444 Fit      -0.131929
 2445 Fit      -0.135218
 2446 Fit      -0.145125
 2447 Fit      -0.131058
 2448 Fit      -0.127951
 2449 Fit      -0.157108
 2450 Fit      -0.139197
 2451 Fit      -0.131591
 2452 Fit      -0.127555
 2453 Fit      -0.131905
 2454 Fit      -0.128571
 2455 Fit      -0.133712
 2456 Fit      -0.140751
 2457 Fit      -0.141870
 2458 Fit      -0.153047
 2459 Fit      -0.181146
 2460 Fit      -0.151292
 2461 Fit      -0.151422
 2462 Fit      -0.151233
 2463 Fit      -0.163251
 2464 Fit      -0.169212
 2465 Fit      -0.159161
 2466 Fit      -0.164083
 2467 Fit      -0.169636
 2468 Fit      -0.156196
 2469 Fit      -0.159842
 2470 Fit      -0.165497
 2471 Fit      -0.172503
 2472 Fit      -0.177817
 2473 Fit      -0.180227
 2474 Fit      -0.152936
 2475 Fit      -0.156067
 2476 Fit      -0.160802
 2477 Fit      -0.168487
 2478 Fit      -0.179223
 2479 Fit      -0.188797
 2480 Fit      -0.152658
 2481 Fit      -0.155643
 2482 Fit      -0.160541
 2483 Fit      -0.168968
 2484 Fit      -0.183190
 2485 Fit      -0.153784
 2486 Fit      -0.156879
 2487 Fit      -0.163238
 2488 Fit      -0.176007
 2489 Fit      -0.157030
 2490 Fit      -0.138457
 2491 Fit      -0.148692
 2492 Fit      -0.139414
 2493 Fit      -0.133086
 2494 Fit      -0.136180
 2495 Fit      -0.144481
 2496 Fit      -0.149162
 2497 Fit      -0.169834
 2498 Fit      -0.157680
 2499 Fit      -0.143223
 2500 Fit      -0.134834
 2501 Fit      -0.163934
 2502 Fit      -0.164327
 2503 Fit      -0.169233
 2504 Fit      -0.135778
 2505 Fit      -0.139352
 2506 Fit      -0.151754
 2507 Fit      -0.164103
 2508 Fit      -0.154618
 2509 Fit      -0.184539
 2510 Fit      -0.171773
 2511 Fit      -0.189613
 2512 Fit      -0.173683
 2513 Fit      -0.168175
 2514 Fit      -0.168247
 2515 Fit      -0.176792
 2516 Fit      -0.167606
 2517 Fit      -0.164691
 2518 Fit      -0.166461
 2519 Fit      -0.172903
 2520 Fit      -0.170284
 2521 Fit      -0.164648
 2522 Fit      -0.162217
 2523 Fit      -0.162947
 2524 Fit      -0.167195
 2525 Fit      -0.175545
 2526 Fit      -0.163586
 2527 Fit      -0.161310
 2528 Fit      -0.160594
 2529 Fit      -0.162663
 2530 Fit      -0.167945
 2531 Fit      -0.159612
 2532 Fit      -0.159851
 2533 Fit      -0.162026
 2534 Fit      -0.166244
 2535 Fit      -0.159005
 2536 Fit      -0.162268
 2537 Fit      -0.133345
 2538 Fit      -0.132575
 2539 Fit      -0.137955
 2540 Fit      -0.170754
 2541 Fit      -0.146133
 2542 Fit      -0.165361
 2543 Fit      -0.164203
 2544 Fit      -0.155394
 2545 Fit      -0.147388
 2546 Fit      -0.143780
 2547 Fit      -0.143495
 2548 Fit      -0.145452
 2549 Fit      -0.147246
 2550 Fit      -0.152047
 2551 Fit      -0.154794
 2552 Fit      -0.149145
 2553 Fit      -0.146343
 2554 Fit      -0.147034
 2555 Fit      -0.149389
 2556 Fit      -0.159715
 2557 Fit      -0.169130
 2558 Fit      -0.147637
 2559 Fit      -0.143405
 2560 Fit      -0.144414
 2561 Fit      -0.153559
 2562 Fit      -0.139134
 2563 Fit      -0.137484
 2564 Fit      -0.143300
 2565 Fit      -0.138142
 2566 Fit      -0.141955
 2567 Fit      -0.146812
 2568 Fit      -0.150579
 2569 Fit      -0.153824
 2570 Fit      -0.131685
 2571 Fit      -0.131846
 2572 Fit      -0.135077
 2573 Fit      -0.140642
 2574 Fit      -0.133768
 2575 Fit      -0.131894
 2576 Fit      -0.138716
 2577 Fit      -0.140419
 2578 Fit      -0.151985
 2579 Fit      -0.155275
 2580 Fit      -0.141454
 2581 Fit      -0.135676
 2582 Fit      -0.162943
 2583 Fit      -0.144924
 2584 Fit      -0.134495
 2585 Fit      -0.131539
 2586 Fit      -0.144353
 2587 Fit      -0.134732
 2588 Fit      -0.144654
 2589 Fit      -0.179367
 2590 Fit      -0.156645
 2591 Fit      -0.156879
 2592 Fit      -0.173752
 2593 Fit      -0.169063
 2594 Fit      -0.165545
 2595 Fit      -0.172481
 2596 Fit      -0.174817
 2597 Fit      -0.176246
 2598 Fit      -0.167629
 2599 Fit      -0.171172
 2600 Fit      -0.175754
 2601 Fit      -0.178095
 2602 Fit      -0.166425
 2603 Fit      -0.168516
 2604 Fit      -0.178737
 2605 Fit      -0.187835
 2606 Fit      -0.163716
 2607 Fit      -0.163001
 2608 Fit      -0.164916
 2609 Fit      -0.170211
 2610 Fit      -0.179796
 2611 Fit      -0.190472
 2612 Fit      -0.162794
 2613 Fit      -0.160510
 2614 Fit      -0.160941
 2615 Fit      -0.164291
 2616 Fit      -0.170677
 2617 Fit      -0.181733
 2618 Fit      -0.192801
 2619 Fit      -0.164952
 2620 Fit      -0.160306
 2621 Fit      -0.159025
 2622 Fit      -0.160490
 2623 Fit      -0.164688
 2624 Fit      -0.171841
 2625 Fit      -0.163024
 2626 Fit      -0.159036
 2627 Fit      -0.159004
 2628 Fit      -0.162250
 2629 Fit      -0.161650
 2630 Fit      -0.158367
 2631 Fit      -0.166672
 2632 Fit      -0.168806
 2633 Fit      -0.165152
 2634 Fit      -0.158330
 2635 Fit      -0.159587
 2636 Fit      -0.174938
 2637 Fit      -0.152377
 2638 Fit      -0.153729
 2639 Fit      -0.148145
 2640 Fit      -0.153096
 2641 Fit      -0.170038
 2642 Fit      -0.158910
 2643 Fit      -0.150512
 2644 Fit      -0.150319
 2645 Fit      -0.161117
 2646 Fit      -0.160107
 2647 Fit      -0.156887
 2648 Fit      -0.170422
 2649 Fit      -0.172417
 2650 Fit      -0.166791
 2651 Fit      -0.161187
 2652 Fit      -0.154769
 2653 Fit      -0.139075
 2654 Fit      -0.133509
 2655 Fit      -0.133213
 2656 Fit      -0.133197
 2657 Fit      -0.132154
 2658 Fit      -0.136565
 2659 Fit      -0.187665
 2660 Fit      -0.173075
 2661 Fit      -0.172613
 2662 Fit      -0.163194
 2663 Fit      -0.161327
 2664 Fit      -0.161129
 2665 Fit      -0.161294
 2666 Fit      -0.152250
 2667 Fit      -0.151801
 2668 Fit      -0.152730
 2669 Fit      -0.152551
 2670 Fit      -0.152395
 2671 Fit      -0.145013
 2672 Fit      -0.144566
 2673 Fit      -0.146121
 2674 Fit      -0.146242
 2675 Fit      -0.145822
 2676 Fit      -0.139849
 2677 Fit      -0.140681
 2678 Fit      -0.141498
 2679 Fit      -0.141178
 2680 Fit      -0.136362
 2681 Fit      -0.137260
 2682 Fit      -0.138009
 2683 Fit      -0.135185
 2684 Fit      -0.150055
 2685 Fit      -0.153186
 2686 Fit      -0.143946
 2687 Fit      -0.135299
 2688 Fit      -0.130778
 2689 Fit      -0.131036
 2690 Fit      -0.145160
 2691 Fit      -0.134761
 2692 Fit      -0.127489
 2693 Fit      -0.124412
 2694 Fit      -0.127119
 2695 Fit      -0.139209
 2696 Fit      -0.131421
 2697 Fit      -0.124559
 2698 Fit      -0.125886
 2699 Fit      -0.128698
 2700 Fit      -0.181937
 2701 Fit      -0.171660
 2702 Fit      -0.157419
 2703 Fit      -0.150516
 2704 Fit      -0.151014
 2705 Fit      -0.160958
 2706 Fit      -0.140985
 2707 Fit      -0.138832
 2708 Fit      -0.143848
 2709 Fit      -0.138699
 2710 Fit      -0.138601
 2711 Fit      -0.137355
 2712 Fit      -0.132656
 2713 Fit      -0.134285
 2714 Fit      -0.125778
 2715 Fit      -0.121354
 2716 Fit      -0.114219
 2717 Fit      -0.115085
 2718 Fit      -0.129983
 2719 Fit      -0.126858
 2720 Fit      -0.124569
 2721 Fit      -0.121451
 2722 Fit      -0.112158
 2723 Fit      -0.099726
 2724 Fit      -0.098234
 2725 Fit      -0.108995
 2726 Fit      -0.115366
 2727 Fit      -0.114060
 2728 Fit      -0.108715
 2729 Fit      -0.105527
 2730 Fit      -0.103600
 2731 Fit      -0.093099
 2732 Fit      -0.104969
 2733 Fit      -0.116817
 2734 Fit      -0.129085
 2735 Fit      -0.096029
 2736 Fit      -0.102966
 2737 Fit      -0.114137
 2738 Fit      -0.103095
 2739 Fit      -0.107298
 2740 Fit      -0.150446
 2741 Fit      -0.157878
 2742 Fit      -0.132981
 2743 Fit      -0.137844
 2744 Fit      -0.133563
 2745 Fit      -0.137688
 2746 Fit      -0.128721
 2747 Fit      -0.111908
 2748 Fit      -0.084774
 2749 Fit      -0.107354
 2750 Fit      -0.095425
 2751 Fit      -0.117249
 2752 Fit      -0.103966
 2753 Fit      -0.104951
 2754 Fit      -0.120685
 2755 Fit      -0.119601
 2756 Fit      -0.107636
 2757 Fit      -0.178956
 2758 Fit      -0.160695
 2759 Fit      -0.164805
 2760 Fit      -0.177029
 2761 Fit      -0.148409
 2762 Fit      -0.149281
 2763 Fit      -0.153131
 2764 Fit      -0.150316
 2765 Fit      -0.138708
 2766 Fit      -0.138172
 2767 Fit      -0.139170
 2768 Fit      -0.144001
 2769 Fit      -0.140790
 2770 Fit      -0.128793
 2771 Fit      -0.127781
 2772 Fit      -0.130924
 2773 Fit      -0.105428
 2774 Fit      -0.105265
 2775 Fit      -0.106877
 2776 Fit      -0.093714
 2777 Fit      -0.093146
 2778 Fit      -0.094442
 2779 Fit      -0.096972
 2780 Fit      -0.096444
 2781 Fit      -0.087713
 2782 Fit      -0.086861
 2783 Fit      -0.087774
 2784 Fit      -0.087923
 2785 Fit      -0.091197
 2786 Fit      -0.084837
 2787 Fit      -0.083327
 2788 Fit      -0.088522
 2789 Fit      -0.081749
 2790 Fit      -0.088566
 2791 Fit      -0.096170
 2792 Fit      -0.082125
 2793 Fit      -0.079420
 2794 Fit      -0.081853
 2795 Fit      -0.087698
 2796 Fit      -0.081513
 2797 Fit      -0.080669
 2798 Fit      -0.086202
 2799 Fit      -0.091697
 2800 Fit      -0.088501
 2801 Fit      -0.084405
 2802 Fit      -0.122799
 2803 Fit      -0.163768
 2804 Fit      -0.137187
 2805 Fit      -0.124196
 2806 Fit      -0.120239
 2807 Fit      -0.130841
 2808 Fit      -0.116213
 2809 Fit      -0.109464
 2810 Fit      -0.116738
 2811 Fit      -0.105522
 2812 Fit      -0.118731
 2813 Fit      -0.110487
 2814 Fit      -0.113215
 2815 Fit      -0.118168
 2816 Fit      -0.099934
 2817 Fit      -0.103854
 2818 Fit      -0.161960
 2819 Fit      -0.143011
 2820 Fit      -0.134763
 2821 Fit      -0.119216
 2822 Fit      -0.123031
 2823 Fit      -0.197066
 2824 Fit      -0.185158
 2825 Fit      -0.179438
 2826 Fit      -0.173656
 2827 Fit      -0.177991
 2828 Fit      -0.189993
 2829 Fit      -0.196824
 2830 Fit      -0.175499
 2831 Fit      -0.169372
 2832 Fit      -0.167471
 2833 Fit      -0.169595
 2834 Fit      -0.175284
 2835 Fit      -0.183386
 2836 Fit      -0.186632
 2837 Fit      -0.175229
 2838 Fit      -0.167839
 2839 Fit      -0.164220
 2840 Fit      -0.164781
 2841 Fit      -0.169517
 2842 Fit      -0.177681
 2843 Fit      -0.186828
 2844 Fit      -0.185024
 2845 Fit      -0.180562
 2846 Fit      -0.168116
 2847 Fit      -0.161256
 2848 Fit      -0.160485
 2849 Fit      -0.165660
 2850 Fit      -0.177823
 2851 Fit      -0.112263
 2852 Fit      -0.095928
 2853 Fit      -0.105958
 2854 Fit      -0.159069
 2855 Fit      -0.144415
 2856 Fit      -0.143346
 2857 Fit      -0.154012
 2858 Fit      -0.144639
 2859 Fit      -0.130961
 2860 Fit      -0.127481
 2861 Fit      -0.131877
 2862 Fit      -0.134623
 2863 Fit      -0.123101
 2864 Fit      -0.120572
 2865 Fit      -0.124984
 2866 Fit      -0.119176
 2867 Fit      -0.119891
 2868 Fit      -0.149701
 2869 Fit      -0.139015
 2870 Fit      -0.127213
 2871 Fit      -0.140886
 2872 Fit      -0.134577
 2873 Fit      -0.172253
 2874 Fit      -0.170644
 2875 Fit      -0.175512
 2876 Fit      -0.177641
 2877 Fit      -0.175936
 2878 Fit      -0.172283
 2879 Fit      -0.169457
 2880 Fit      -0.170783
 2881 Fit      -0.176902
 2882 Fit      -0.183991
 2883 Fit      -0.186848
 2884 Fit      -0.185263
 2885 Fit      -0.183566
 2886 Fit      -0.181321
 2887 Fit      -0.178098
 2888 Fit      -0.174879
 2889 Fit      -0.171503
 2890 Fit      -0.168866
 2891 Fit      -0.168277
 2892 Fit      -0.181390
 2893 Fit      -0.195994
 2894 Fit      -0.189146
 2895 Fit      -0.184773
 2896 Fit      -0.181710
 2897 Fit      -0.179784
 2898 Fit      -0.175732
 2899 Fit      -0.170910
 2900 Fit      -0.186513
 2901 Fit      -0.184268
 2902 Fit      -0.178871
 2903 Fit      -0.180990
 2904 Fit      -0.176489
 2905 Fit      -0.175669
 2906 Fit      -0.176865
 2907 Fit      -0.182439
 2908 Fit      -0.179127
 2909 Fit      -0.174476
 2910 Fit      -0.172188
 2911 Fit      -0.177687
 2912 Fit      -0.175781
 2913 Fit      -0.190117
 2914 Fit      -0.181056
 2915 Fit      -0.173739
 2916 Fit      -0.186992
 2917 Fit      -0.186112
 2918 Fit      -0.175221
 2919 Fit      -0.178483
 2920 Fit      -0.179338
 2921 Fit      -0.177732
 2922 Fit      -0.188800
 2923 Fit      -0.175618
 2924 Fit      -0.171786
 2925 Fit      -0.194315
 2926 Fit      -0.153212
 2927 Fit      -0.135611
 2928 Fit      -0.129086
 2929 Fit      -0.128243
 2930 Fit      -0.129600
 2931 Fit      -0.125389
 2932 Fit      -0.125826
 2933 Fit      -0.133641
 2934 Fit      -0.150489
 2935 Fit      -0.130771
 2936 Fit      -0.177214
 2937 Fit      -0.155676
 2938 Fit      -0.163684
 2939 Fit      -0.142495
 2940 Fit      -0.158891
 2941 Fit      -0.145312
 2942 Fit      -0.132924
 2943 Fit      -0.143544
 2944 Fit      -0.164040
 2945 Fit      -0.130970
 2946 Fit      -0.131157
 2947 Fit      -0.141448
 2948 Fit      -0.159910
 2949 Fit      -0.187989
 2950 Fit      -0.127624
 2951 Fit      -0.136031
 2952 Fit      -0.150121
 2953 Fit      -0.129789
 2954 Fit      -0.147690
 2955 Fit      -0.134696
 2956 Fit      -0.125869
 2957 Fit      -0.123908
 2958 Fit      -0.130548
 2959 Fit      -0.152524
 2960 Fit      -0.134599
 2961 Fit      -0.127240
 2962 Fit      -0.167869
 2963 Fit      -0.141126
 2964 Fit      -0.160708
 2965 Fit      -0.146827
 2966 Fit      -0.162529
 2967 Fit      -0.145625
 2968 Fit      -0.136221
 2969 Fit      -0.183251
 2970 Fit      -0.165666
 2971 Fit      -0.148235
 2972 Fit      -0.136386
 2973 Fit      -0.130717
 2974 Fit      -0.190867
 2975 Fit      -0.173752
 2976 Fit      -0.153638
 2977 Fit      -0.139868
 2978 Fit      -0.179130
 2979 Fit      -0.158494
 -----------------------------------------------------------------
 Leave Link  602 at Tue Mar  3 16:59:02 2015, MaxMem=  786432000 cpu:      18.1

 Test job not archived.
 1\1\GINC-C4A-S19\SP\RB3LYP\6-31G(d)\C26H42N10O10S4Zn1(2-)\ROOT\03-Mar-
 2015\0\\#N B3LYP/6-31G* Integral=(Grid=UltraFine) Pop(MK,ReadRadii) SC
 F=XQC IOp(6/33=2)\\CLR\\-2,1\H,0,19.368,53.242,51.265\C,0,19.778,54.25
 1,51.212\C,0,18.904,55.134,50.319\O,0,19.264,56.288,50.038\H,0,20.809,
 54.225,50.86\H,0,19.813,54.682,52.212\N,0,17.791,54.601,49.826\C,0,16.
 907,55.427,49.022\C,0,16.024,56.213,49.989\O,0,15.317,55.653,50.829\C,
 0,16.045,54.627,48.05\S,0,15.055,55.715,46.973\H,0,17.572,53.633,50.01
 4\H,0,17.501,56.104,48.407\H,0,16.685,54.01,47.419\H,0,15.363,53.987,4
 8.61\N,0,16.101,57.533,49.881\C,0,15.329,58.396,50.755\H,0,14.278,58.4
 31,50.468\H,0,15.754,59.4,50.751\H,0,16.703,57.945,49.183\H,0,15.39,58
 .026,51.778\H,0,15.071,51.842,44.355\C,0,15.55,52.786,44.613\C,0,14.92
 1,53.743,43.57\O,0,14.653,53.316,42.449\H,0,16.615,52.67,44.41\H,0,15.
 306,53.049,45.642\N,0,14.67,55.011,43.896\C,0,14.057,55.891,42.884\C,0
 ,15.017,56.344,41.773\O,0,14.613,56.524,40.62\C,0,13.39,57.099,43.544\
 S,0,14.531,58.159,44.482\H,0,14.9,55.347,44.82\H,0,13.233,55.368,42.39
 9\H,0,12.929,57.724,42.779\H,0,12.625,56.757,44.241\N,0,16.287,56.546,
 42.123\C,0,17.289,56.993,41.151\C,0,17.319,58.499,40.93\O,0,18.013,58.
 971,40.04\H,0,16.575,56.39,43.078\H,0,18.282,56.701,41.492\H,0,17.088,
 56.533,40.183\N,0,16.606,59.235,41.784\C,0,16.476,60.687,41.721\C,0,16
 .819,61.4,43.03\O,0,17.517,62.407,42.995\H,0,15.456,60.949,41.44\H,0,1
 6.108,58.786,42.54\H,0,17.146,61.079,40.956\N,0,16.342,60.894,44.168\C
 ,0,16.609,61.52,45.47\C,0,18.102,61.749,45.643\O,0,18.909,61.12,44.947
 \C,0,16.075,60.662,46.631\S,0,17.056,59.153,47.047\H,0,15.779,60.056,4
 4.148\H,0,16.092,62.478,45.526\H,0,16.044,61.261,47.541\H,0,15.071,60.
 311,46.392\N,0,18.482,62.62,46.575\C,0,19.906,62.921,46.785\C,0,20.759
 ,61.711,47.188\O,0,21.928,61.589,46.784\H,0,20.044,63.745,47.485\H,0,1
 7.787,63.08,47.145\H,0,20.334,63.317,45.864\N,0,20.16,60.808,47.963\C,
 0,20.858,59.609,48.41\C,0,21.27,58.767,47.232\O,0,22.399,58.286,47.174
 \H,0,19.202,60.95,48.251\H,0,21.749,59.894,48.969\H,0,20.2,59.022,49.0
 51\N,0,20.342,58.574,46.298\C,0,20.622,57.804,45.085\C,0,21.647,58.549
 ,44.244\O,0,22.493,57.919,43.615\C,0,19.34,57.582,44.265\S,0,18.138,56
 .425,45.\H,0,19.418,58.964,46.42\H,0,21.016,56.825,45.358\H,0,18.819,5
 8.531,44.14\H,0,19.599,57.179,43.286\N,0,21.559,59.881,44.217\C,0,22.5
 01,60.696,43.447\H,0,23.514,60.542,43.819\H,0,22.224,61.75,43.48\H,0,2
 0.829,60.346,44.737\H,0,22.456,60.409,42.396\Zn,0,16.2,57.412,45.833\\
 Version=AM64L-G03RevE.01\State=1-A\HF=-5688.0252477\RMSD=2.612e-05\The
 rmal=0.\Dipole=-1.4816253,3.3785745,4.7362145\PG=C01 [X(C26H42N10O10S4
 Zn1)]\\@


 THERE IS NO CURE FOR BIRTH AND DEATH SAVE TO ENJOY THE INTERVAL.

                               -- GEORGE SANTAYANA
 Job cpu time:  0 days  4 hours 11 minutes 55.8 seconds.
 File lengths (MBytes):  RWF=    434 Int=      0 D2E=      0 Chk=     43 Scr=      1
 Normal termination of Gaussian 03 at Tue Mar  3 16:59:11 2015.
