CLR                                                                     
Freq      RB3LYP                                                      6-31G(d)            
Number of atoms                            I               33
Charge                                     I               -2
Multiplicity                               I                1
Number of electrons                        I              164
Number of alpha electrons                  I               82
Number of beta electrons                   I               82
Number of basis functions                  I              272
Number of independant functions            I              272
Number of point charges in /Mol/           I                0
Number of translation vectors              I                0
Info1-9                                    I   N=           9
           9           7           0           0           0         101
           6          18        -502
Num ILSW                                   I              100
ILSW                                       I   N=         100
           0           1           0           0           2           0
           0           0           0           0         402      200000
           5           0          -1           0           0           0
           0      800000           1           0           1           0
           1           0           0           0     1000000           0
           0           0      100000           0          -1           0
           0           0           0           0           0           0
           0           0           0           1           0           0
           0           0           1      720000      810000           0
           0           0           0           0           0           0
           0           0           0           0           0           0
           0           0           0           0           0           0
           0           0           0           0           0           0
           0           0           0           0           0           0
           0           0           0           0           0           0
           0           0           0           0           0           0
           0           0           0           0
Number of contracted shells                I              100
Highest angular momentum                   I                3
Largest degree of contraction              I                6
Number of primitive shells                 I              263
Pure/Cartesian d shells                    I                1
Pure/Cartesian f shells                    I                0
Virial Ratio                               R      2.003099936684222E+00
SCF Energy                                 R     -3.688898327488631E+03
Total Energy                               R     -3.688898327488631E+03
RMS Force                                  R      2.248339949918978E-05
RMS Density                                R      2.680412927186807E-09
Atomic numbers                             I   N=          33
           1           6           1           6          16           1
           1           1           1           6           1           6
          16           1           1           1           1           6
           1           6          16           1           1           1
           1           6           1           6          16           1
           1           1          30
Nuclear charges                            R   N=          33
  1.00000000E+00  6.00000000E+00  1.00000000E+00  6.00000000E+00  1.60000000E+01
  1.00000000E+00  1.00000000E+00  1.00000000E+00  1.00000000E+00  6.00000000E+00
  1.00000000E+00  6.00000000E+00  1.60000000E+01  1.00000000E+00  1.00000000E+00
  1.00000000E+00  1.00000000E+00  6.00000000E+00  1.00000000E+00  6.00000000E+00
  1.60000000E+01  1.00000000E+00  1.00000000E+00  1.00000000E+00  1.00000000E+00
  6.00000000E+00  1.00000000E+00  6.00000000E+00  1.60000000E+01  1.00000000E+00
  1.00000000E+00  1.00000000E+00  3.00000000E+01
Current cartesian coordinates              R   N=          99
 -6.53936991E+00 -5.96291427E+00  2.26323470E+00 -5.90940958E+00 -4.50790845E+00
  9.03597873E-01 -7.44347644E+00 -4.18796628E+00 -4.57119981E-01 -3.48441324E+00
 -5.30672022E+00 -4.59848271E-01 -2.34800490E+00 -2.94235894E+00 -2.76222416E+00
 -5.59239836E+00 -2.73662862E+00  1.92652369E+00 -2.00052583E+00 -5.66364397E+00
  9.40868205E-01 -3.80838961E+00 -7.09806823E+00 -1.46815314E+00  6.03788937E+00
 -1.92972403E+00 -1.86164420E+00  6.52218918E+00 -9.75496916E-01 -3.63362992E+00
  7.92145959E+00  4.97150875E-01 -3.20715225E+00  4.14032934E+00  1.77770109E-01
 -4.80525021E+00  2.59683281E+00  2.54952018E+00 -2.75925419E+00  7.41172821E+00
 -2.36361715E+00 -4.91645979E+00  4.61984145E+00  1.08846206E+00 -6.61395007E+00
  2.78573358E+00 -1.33298053E+00 -5.21951891E+00 -2.24235740E+00  5.59248351E+00
 -2.53496505E+00 -4.01709129E+00  6.07622684E+00 -1.58629895E+00 -3.63663739E+00
  7.65036142E+00 -2.88395881E-01 -5.03367138E+00  3.78012604E+00 -1.47095267E-01
 -2.88583094E+00  2.60302475E+00  2.33694973E+00 -5.37772698E+00  6.73760821E+00
 -3.02702107E+00 -6.85005957E+00  4.26771709E+00  7.43981745E-01 -5.40114799E+00
  2.23615890E+00 -1.47993907E+00  1.72094270E+00  2.45332627E+00  5.64394214E+00
  3.41406818E+00  1.47143956E+00  6.31600895E+00  4.73731818E+00  2.89477834E+00
  7.08165816E+00  4.62056875E+00 -4.05164413E-02  4.16288298E+00  2.55135650E+00
 -2.51627182E+00  2.83880737E+00  2.84358926E+00  2.17835198E-01  7.86767951E+00
  5.16677568E+00  1.25035373E+00  2.63631593E+00  6.36032731E+00 -9.52385574E-01
  4.84985662E+00 -2.86197009E-02 -6.03485600E-02 -6.16801437E-02
Int Atom Types                             I   N=          33
           0           0           0           0           0           0
           0           0           0           0           0           0
           0           0           0           0           0           0
           0           0           0           0           0           0
           0           0           0           0           0           0
           0           0           0
Force Field                                I                0
MM charges                                 R   N=          33
  0.00000000E+00  0.00000000E+00  0.00000000E+00  0.00000000E+00  0.00000000E+00
  0.00000000E+00  0.00000000E+00  0.00000000E+00  0.00000000E+00  0.00000000E+00
  0.00000000E+00  0.00000000E+00  0.00000000E+00  0.00000000E+00  0.00000000E+00
  0.00000000E+00  0.00000000E+00  0.00000000E+00  0.00000000E+00  0.00000000E+00
  0.00000000E+00  0.00000000E+00  0.00000000E+00  0.00000000E+00  0.00000000E+00
  0.00000000E+00  0.00000000E+00  0.00000000E+00  0.00000000E+00  0.00000000E+00
  0.00000000E+00  0.00000000E+00  0.00000000E+00
Integer atomic weights                     I   N=          33
           1          12           1          12          32           1
           1           1           1          12           1          12
          32           1           1           1           1          12
           1          12          32           1           1           1
           1          12           1          12          32           1
           1           1          64
Real atomic weights                        R   N=          33
  1.00782504E+00  1.20000000E+01  1.00782504E+00  1.20000000E+01  3.19720718E+01
  1.00782504E+00  1.00782504E+00  1.00782504E+00  1.00782504E+00  1.20000000E+01
  1.00782504E+00  1.20000000E+01  3.19720718E+01  1.00782504E+00  1.00782504E+00
  1.00782504E+00  1.00782504E+00  1.20000000E+01  1.00782504E+00  1.20000000E+01
  3.19720718E+01  1.00782504E+00  1.00782504E+00  1.00782504E+00  1.00782504E+00
  1.20000000E+01  1.00782504E+00  1.20000000E+01  3.19720718E+01  1.00782504E+00
  1.00782504E+00  1.00782504E+00  6.39291454E+01
Atom residue info                          I   N=          33
           0           0           0           0           0           0
           0           0           0           0           0           0
           0           0           0           0           0           0
           0           0           0           0           0           0
           0           0           0           0           0           0
           0           0           0
Atom fragment info                         I   N=          33
           0           0           0           0           0           0
           0           0           0           0           0           0
           0           0           0           0           0           0
           0           0           0           0           0           0
           0           0           0           0           0           0
           0           0           0
Atom residue num                           I   N=          33
           0           0           0           0           0           0
           0           0           0           0           0           0
           0           0           0           0           0           0
           0           0           0           0           0           0
           0           0           0           0           0           0
           0           0           0
Nuclear spins                              I   N=          33
           1           0           1           0           0           1
           1           1           1           0           1           0
           0           1           1           1           1           0
           1           0           0           1           1           1
           1           0           1           0           0           1
           1           1           0
Nuclear ZEff                               R   N=          33
 -1.00000000E+00 -3.60000000E+00 -1.00000000E+00 -3.60000000E+00 -1.36000000E+01
 -1.00000000E+00 -1.00000000E+00 -1.00000000E+00 -1.00000000E+00 -3.60000000E+00
 -1.00000000E+00 -3.60000000E+00 -1.36000000E+01 -1.00000000E+00 -1.00000000E+00
 -1.00000000E+00 -1.00000000E+00 -3.60000000E+00 -1.00000000E+00 -3.60000000E+00
 -1.36000000E+01 -1.00000000E+00 -1.00000000E+00 -1.00000000E+00 -1.00000000E+00
 -3.60000000E+00 -1.00000000E+00 -3.60000000E+00 -1.36000000E+01 -1.00000000E+00
 -1.00000000E+00 -1.00000000E+00 -2.55000000E+01
Nuclear QMom                               R   N=          33
  0.00000000E+00  0.00000000E+00  0.00000000E+00  0.00000000E+00  0.00000000E+00
  0.00000000E+00  0.00000000E+00  0.00000000E+00  0.00000000E+00  0.00000000E+00
  0.00000000E+00  0.00000000E+00  0.00000000E+00  0.00000000E+00  0.00000000E+00
  0.00000000E+00  0.00000000E+00  0.00000000E+00  0.00000000E+00  0.00000000E+00
  0.00000000E+00  0.00000000E+00  0.00000000E+00  0.00000000E+00  0.00000000E+00
  0.00000000E+00  0.00000000E+00  0.00000000E+00  0.00000000E+00  0.00000000E+00
  0.00000000E+00  0.00000000E+00  0.00000000E+00
Nuclear GFac                               R   N=          33
  2.79284600E+00  0.00000000E+00  2.79284600E+00  0.00000000E+00  0.00000000E+00
  2.79284600E+00  2.79284600E+00  2.79284600E+00  2.79284600E+00  0.00000000E+00
  2.79284600E+00  0.00000000E+00  0.00000000E+00  2.79284600E+00  2.79284600E+00
  2.79284600E+00  2.79284600E+00  0.00000000E+00  2.79284600E+00  0.00000000E+00
  0.00000000E+00  2.79284600E+00  2.79284600E+00  2.79284600E+00  2.79284600E+00
  0.00000000E+00  2.79284600E+00  0.00000000E+00  0.00000000E+00  2.79284600E+00
  2.79284600E+00  2.79284600E+00  0.00000000E+00
MicOpt                                     I   N=          33
          -1          -1          -1          -1          -1          -1
          -1          -1          -1          -1          -1          -1
          -1          -1          -1          -1          -1          -1
          -1          -1          -1          -1          -1          -1
          -1          -1          -1          -1          -1          -1
          -1          -1          -1
Constraint Structure                       R   N=          99
 -6.53936991E+00 -5.96291427E+00  2.26323470E+00 -5.90940958E+00 -4.50790845E+00
  9.03597873E-01 -7.44347644E+00 -4.18796628E+00 -4.57119981E-01 -3.48441324E+00
 -5.30672022E+00 -4.59848271E-01 -2.34800490E+00 -2.94235894E+00 -2.76222416E+00
 -5.59239836E+00 -2.73662862E+00  1.92652369E+00 -2.00052583E+00 -5.66364397E+00
  9.40868205E-01 -3.80838961E+00 -7.09806823E+00 -1.46815314E+00  6.03788937E+00
 -1.92972403E+00 -1.86164420E+00  6.52218918E+00 -9.75496916E-01 -3.63362992E+00
  7.92145959E+00  4.97150875E-01 -3.20715225E+00  4.14032934E+00  1.77770109E-01
 -4.80525021E+00  2.59683281E+00  2.54952018E+00 -2.75925419E+00  7.41172821E+00
 -2.36361715E+00 -4.91645979E+00  4.61984145E+00  1.08846206E+00 -6.61395007E+00
  2.78573358E+00 -1.33298053E+00 -5.21951891E+00 -2.24235740E+00  5.59248351E+00
 -2.53496505E+00 -4.01709129E+00  6.07622684E+00 -1.58629895E+00 -3.63663739E+00
  7.65036142E+00 -2.88395881E-01 -5.03367138E+00  3.78012604E+00 -1.47095267E-01
 -2.88583094E+00  2.60302475E+00  2.33694973E+00 -5.37772698E+00  6.73760821E+00
 -3.02702107E+00 -6.85005957E+00  4.26771709E+00  7.43981745E-01 -5.40114799E+00
  2.23615890E+00 -1.47993907E+00  1.72094270E+00  2.45332627E+00  5.64394214E+00
  3.41406818E+00  1.47143956E+00  6.31600895E+00  4.73731818E+00  2.89477834E+00
  7.08165816E+00  4.62056875E+00 -4.05164413E-02  4.16288298E+00  2.55135650E+00
 -2.51627182E+00  2.83880737E+00  2.84358926E+00  2.17835198E-01  7.86767951E+00
  5.16677568E+00  1.25035373E+00  2.63631593E+00  6.36032731E+00 -9.52385574E-01
  4.84985662E+00 -2.86197009E-02 -6.03485600E-02 -6.16801437E-02
ONIOM Charges                              I   N=          16
          -2           0           0           0           0           0
           0           0           0           0           0           0
           0           0           0           0
ONIOM Multiplicities                       I   N=          16
           1           0           0           0           0           0
           0           0           0           0           0           0
           0           0           0           0
Atom Layers                                I   N=          33
           0           0           0           0           0           0
           0           0           0           0           0           0
           0           0           0           0           0           0
           0           0           0           0           0           0
           0           0           0           0           0           0
           0           0           0
Atom Modifiers                             I   N=          33
           0           0           0           0           0           0
           0           0           0           0           0           0
           0           0           0           0           0           0
           0           0           0           0           0           0
           0           0           0           0           0           0
           0           0           0
Int Atom Modified Types                    I   N=          33
           0           0           0           0           0           0
           0           0           0           0           0           0
           0           0           0           0           0           0
           0           0           0           0           0           0
           0           0           0           0           0           0
           0           0           0
Link Atoms                                 I   N=          33
           0           0           0           0           0           0
           0           0           0           0           0           0
           0           0           0           0           0           0
           0           0           0           0           0           0
           0           0           0           0           0           0
           0           0           0
Atom Modified MM Charges                   R   N=          33
  0.00000000E+00  0.00000000E+00  0.00000000E+00  0.00000000E+00  0.00000000E+00
  0.00000000E+00  0.00000000E+00  0.00000000E+00  0.00000000E+00  0.00000000E+00
  0.00000000E+00  0.00000000E+00  0.00000000E+00  0.00000000E+00  0.00000000E+00
  0.00000000E+00  0.00000000E+00  0.00000000E+00  0.00000000E+00  0.00000000E+00
  0.00000000E+00  0.00000000E+00  0.00000000E+00  0.00000000E+00  0.00000000E+00
  0.00000000E+00  0.00000000E+00  0.00000000E+00  0.00000000E+00  0.00000000E+00
  0.00000000E+00  0.00000000E+00  0.00000000E+00
Link Distances                             R   N=         132
  0.00000000E+00  0.00000000E+00  0.00000000E+00  0.00000000E+00  0.00000000E+00
  0.00000000E+00  0.00000000E+00  0.00000000E+00  0.00000000E+00  0.00000000E+00
  0.00000000E+00  0.00000000E+00  0.00000000E+00  0.00000000E+00  0.00000000E+00
  0.00000000E+00  0.00000000E+00  0.00000000E+00  0.00000000E+00  0.00000000E+00
  0.00000000E+00  0.00000000E+00  0.00000000E+00  0.00000000E+00  0.00000000E+00
  0.00000000E+00  0.00000000E+00  0.00000000E+00  0.00000000E+00  0.00000000E+00
  0.00000000E+00  0.00000000E+00  0.00000000E+00  0.00000000E+00  0.00000000E+00
  0.00000000E+00  0.00000000E+00  0.00000000E+00  0.00000000E+00  0.00000000E+00
  0.00000000E+00  0.00000000E+00  0.00000000E+00  0.00000000E+00  0.00000000E+00
  0.00000000E+00  0.00000000E+00  0.00000000E+00  0.00000000E+00  0.00000000E+00
  0.00000000E+00  0.00000000E+00  0.00000000E+00  0.00000000E+00  0.00000000E+00
  0.00000000E+00  0.00000000E+00  0.00000000E+00  0.00000000E+00  0.00000000E+00
  0.00000000E+00  0.00000000E+00  0.00000000E+00  0.00000000E+00  0.00000000E+00
  0.00000000E+00  0.00000000E+00  0.00000000E+00  0.00000000E+00  0.00000000E+00
  0.00000000E+00  0.00000000E+00  0.00000000E+00  0.00000000E+00  0.00000000E+00
  0.00000000E+00  0.00000000E+00  0.00000000E+00  0.00000000E+00  0.00000000E+00
  0.00000000E+00  0.00000000E+00  0.00000000E+00  0.00000000E+00  0.00000000E+00
  0.00000000E+00  0.00000000E+00  0.00000000E+00  0.00000000E+00  0.00000000E+00
  0.00000000E+00  0.00000000E+00  0.00000000E+00  0.00000000E+00  0.00000000E+00
  0.00000000E+00  0.00000000E+00  0.00000000E+00  0.00000000E+00  0.00000000E+00
  0.00000000E+00  0.00000000E+00  0.00000000E+00  0.00000000E+00  0.00000000E+00
  0.00000000E+00  0.00000000E+00  0.00000000E+00  0.00000000E+00  0.00000000E+00
  0.00000000E+00  0.00000000E+00  0.00000000E+00  0.00000000E+00  0.00000000E+00
  0.00000000E+00  0.00000000E+00  0.00000000E+00  0.00000000E+00  0.00000000E+00
  0.00000000E+00  0.00000000E+00  0.00000000E+00  0.00000000E+00  0.00000000E+00
  0.00000000E+00  0.00000000E+00  0.00000000E+00  0.00000000E+00  0.00000000E+00
  0.00000000E+00  0.00000000E+00
MxBond                                     I                4
NBond                                      I   N=          33
           1           4           1           4           2           1
           1           1           1           4           1           4
           2           1           1           1           1           4
           1           4           2           1           1           1
           1           4           1           4           2           1
           1           1           4
IBond                                      I   N=         132
           2           0           0           0           1           3
           4           6           2           0           0           0
           2           5           7           8           4          33
           0           0           2           0           0           0
           4           0           0           0           4           0
           0           0          10           0           0           0
           9          11          12          14          10           0
           0           0          10          13          15          16
          12          33           0           0          10           0
           0           0          12           0           0           0
          12           0           0           0          18           0
           0           0          17          19          20          22
          18           0           0           0          18          21
          23          24          20          33           0           0
          18           0           0           0          20           0
           0           0          20           0           0           0
          26           0           0           0          25          27
          28          30          26           0           0           0
          26          29          31          32          28          33
           0           0          26           0           0           0
          28           0           0           0          28           0
           0           0           5          13          21          29
RBond                                      R   N=         132
  1.00000000E+00  0.00000000E+00  0.00000000E+00  0.00000000E+00  1.00000000E+00
  1.00000000E+00  1.00000000E+00  1.00000000E+00  1.00000000E+00  0.00000000E+00
  0.00000000E+00  0.00000000E+00  1.00000000E+00  1.00000000E+00  1.00000000E+00
  1.00000000E+00  1.00000000E+00  1.00000000E+00  0.00000000E+00  0.00000000E+00
  1.00000000E+00  0.00000000E+00  0.00000000E+00  0.00000000E+00  1.00000000E+00
  0.00000000E+00  0.00000000E+00  0.00000000E+00  1.00000000E+00  0.00000000E+00
  0.00000000E+00  0.00000000E+00  1.00000000E+00  0.00000000E+00  0.00000000E+00
  0.00000000E+00  1.00000000E+00  1.00000000E+00  1.00000000E+00  1.00000000E+00
  1.00000000E+00  0.00000000E+00  0.00000000E+00  0.00000000E+00  1.00000000E+00
  1.00000000E+00  1.00000000E+00  1.00000000E+00  1.00000000E+00  1.00000000E+00
  0.00000000E+00  0.00000000E+00  1.00000000E+00  0.00000000E+00  0.00000000E+00
  0.00000000E+00  1.00000000E+00  0.00000000E+00  0.00000000E+00  0.00000000E+00
  1.00000000E+00  0.00000000E+00  0.00000000E+00  0.00000000E+00  1.00000000E+00
  0.00000000E+00  0.00000000E+00  0.00000000E+00  1.00000000E+00  1.00000000E+00
  1.00000000E+00  1.00000000E+00  1.00000000E+00  0.00000000E+00  0.00000000E+00
  0.00000000E+00  1.00000000E+00  1.00000000E+00  1.00000000E+00  1.00000000E+00
  1.00000000E+00  1.00000000E+00  0.00000000E+00  0.00000000E+00  1.00000000E+00
  0.00000000E+00  0.00000000E+00  0.00000000E+00  1.00000000E+00  0.00000000E+00
  0.00000000E+00  0.00000000E+00  1.00000000E+00  0.00000000E+00  0.00000000E+00
  0.00000000E+00  1.00000000E+00  0.00000000E+00  0.00000000E+00  0.00000000E+00
  1.00000000E+00  1.00000000E+00  1.00000000E+00  1.00000000E+00  1.00000000E+00
  0.00000000E+00  0.00000000E+00  0.00000000E+00  1.00000000E+00  1.00000000E+00
  1.00000000E+00  1.00000000E+00  1.00000000E+00  1.00000000E+00  0.00000000E+00
  0.00000000E+00  1.00000000E+00  0.00000000E+00  0.00000000E+00  0.00000000E+00
  1.00000000E+00  0.00000000E+00  0.00000000E+00  0.00000000E+00  1.00000000E+00
  0.00000000E+00  0.00000000E+00  0.00000000E+00  1.00000000E+00  1.00000000E+00
  1.00000000E+00  1.00000000E+00
Shell types                                I   N=         100
           0           0           0          -1          -1           2
           0           0           0          -1          -1           2
           0          -1          -1          -1           2           0
           0           0           0           0           0           0
           0           0          -1          -1           2           0
           0           0          -1          -1           2           0
          -1          -1          -1           2           0           0
           0           0           0           0           0           0
           0          -1          -1           2           0           0
           0          -1          -1           2           0          -1
          -1          -1           2           0           0           0
           0           0           0           0           0           0
          -1          -1           2           0           0           0
          -1          -1           2           0          -1          -1
          -1           2           0           0           0           0
           0           0           0          -1          -1          -1
          -1           2           2          -3
Number of primitives per shell             I   N=         100
           3           1           6           3           1           1
           3           1           6           3           1           1
           6           6           3           1           1           3
           1           3           1           3           1           3
           1           6           3           1           1           3
           1           6           3           1           1           6
           6           3           1           1           3           1
           3           1           3           1           3           1
           6           3           1           1           3           1
           6           3           1           1           6           6
           3           1           1           3           1           3
           1           3           1           3           1           6
           3           1           1           3           1           6
           3           1           1           6           6           3
           1           1           3           1           3           1
           3           1           6           6           6           3
           1           3           1           1
Shell to atom map                          I   N=         100
           1           1           2           2           2           2
           3           3           4           4           4           4
           5           5           5           5           5           6
           6           7           7           8           8           9
           9          10          10          10          10          11
          11          12          12          12          12          13
          13          13          13          13          14          14
          15          15          16          16          17          17
          18          18          18          18          19          19
          20          20          20          20          21          21
          21          21          21          22          22          23
          23          24          24          25          25          26
          26          26          26          27          27          28
          28          28          28          29          29          29
          29          29          30          30          31          31
          32          32          33          33          33          33
          33          33          33          33
Primitive exponents                        R   N=         263
  1.87311370E+01  2.82539436E+00  6.40121692E-01  1.61277759E-01  3.04752488E+03
  4.57369518E+02  1.03948685E+02  2.92101553E+01  9.28666296E+00  3.16392696E+00
  7.86827235E+00  1.88128854E+00  5.44249258E-01  1.68714478E-01  8.00000000E-01
  1.87311370E+01  2.82539436E+00  6.40121692E-01  1.61277759E-01  3.04752488E+03
  4.57369518E+02  1.03948685E+02  2.92101553E+01  9.28666296E+00  3.16392696E+00
  7.86827235E+00  1.88128854E+00  5.44249258E-01  1.68714478E-01  8.00000000E-01
  2.19171000E+04  3.30149000E+03  7.54146000E+02  2.12711000E+02  6.79896000E+01
  2.30515000E+01  4.23735000E+02  1.00710000E+02  3.21599000E+01  1.18079000E+01
  4.63110000E+00  1.87025000E+00  2.61584000E+00  9.22167000E-01  3.41287000E-01
  1.17167000E-01  6.50000000E-01  1.87311370E+01  2.82539436E+00  6.40121692E-01
  1.61277759E-01  1.87311370E+01  2.82539436E+00  6.40121692E-01  1.61277759E-01
  1.87311370E+01  2.82539436E+00  6.40121692E-01  1.61277759E-01  1.87311370E+01
  2.82539436E+00  6.40121692E-01  1.61277759E-01  3.04752488E+03  4.57369518E+02
  1.03948685E+02  2.92101553E+01  9.28666296E+00  3.16392696E+00  7.86827235E+00
  1.88128854E+00  5.44249258E-01  1.68714478E-01  8.00000000E-01  1.87311370E+01
  2.82539436E+00  6.40121692E-01  1.61277759E-01  3.04752488E+03  4.57369518E+02
  1.03948685E+02  2.92101553E+01  9.28666296E+00  3.16392696E+00  7.86827235E+00
  1.88128854E+00  5.44249258E-01  1.68714478E-01  8.00000000E-01  2.19171000E+04
  3.30149000E+03  7.54146000E+02  2.12711000E+02  6.79896000E+01  2.30515000E+01
  4.23735000E+02  1.00710000E+02  3.21599000E+01  1.18079000E+01  4.63110000E+00
  1.87025000E+00  2.61584000E+00  9.22167000E-01  3.41287000E-01  1.17167000E-01
  6.50000000E-01  1.87311370E+01  2.82539436E+00  6.40121692E-01  1.61277759E-01
  1.87311370E+01  2.82539436E+00  6.40121692E-01  1.61277759E-01  1.87311370E+01
  2.82539436E+00  6.40121692E-01  1.61277759E-01  1.87311370E+01  2.82539436E+00
  6.40121692E-01  1.61277759E-01  3.04752488E+03  4.57369518E+02  1.03948685E+02
  2.92101553E+01  9.28666296E+00  3.16392696E+00  7.86827235E+00  1.88128854E+00
  5.44249258E-01  1.68714478E-01  8.00000000E-01  1.87311370E+01  2.82539436E+00
  6.40121692E-01  1.61277759E-01  3.04752488E+03  4.57369518E+02  1.03948685E+02
  2.92101553E+01  9.28666296E+00  3.16392696E+00  7.86827235E+00  1.88128854E+00
  5.44249258E-01  1.68714478E-01  8.00000000E-01  2.19171000E+04  3.30149000E+03
  7.54146000E+02  2.12711000E+02  6.79896000E+01  2.30515000E+01  4.23735000E+02
  1.00710000E+02  3.21599000E+01  1.18079000E+01  4.63110000E+00  1.87025000E+00
  2.61584000E+00  9.22167000E-01  3.41287000E-01  1.17167000E-01  6.50000000E-01
  1.87311370E+01  2.82539436E+00  6.40121692E-01  1.61277759E-01  1.87311370E+01