 Entering Gaussian System, Link 0=g03
 Initial command:
 /apps/gaussian/g03/amd64/g03/l1.exe /scratch/lfs/pengfei/QM/1A5T/Gau-27808.inp -scrdir=/scratch/lfs/pengfei/QM/1A5T/
 Entering Link 1 = /apps/gaussian/g03/amd64/g03/l1.exe PID=     27809.
  
 Copyright (c) 1988,1990,1992,1993,1995,1998,2003,2004,2007, Gaussian, Inc.
                  All Rights Reserved.
  
 This is the Gaussian(R) 03 program.  It is based on the
 the Gaussian(R) 98 system (copyright 1998, Gaussian, Inc.),
 the Gaussian(R) 94 system (copyright 1995, Gaussian, Inc.),
 the Gaussian 92(TM) system (copyright 1992, Gaussian, Inc.),
 the Gaussian 90(TM) system (copyright 1990, Gaussian, Inc.),
 the Gaussian 88(TM) system (copyright 1988, Gaussian, Inc.),
 the Gaussian 86(TM) system (copyright 1986, Carnegie Mellon
 University), and the Gaussian 82(TM) system (copyright 1983,
 Carnegie Mellon University). Gaussian is a federally registered
 trademark of Gaussian, Inc.
  
 This software contains proprietary and confidential information,
 including trade secrets, belonging to Gaussian, Inc.
  
 This software is provided under written license and may be
 used, copied, transmitted, or stored only in accord with that
 written license.
  
 The following legend is applicable only to US Government
 contracts under FAR:
  
                    RESTRICTED RIGHTS LEGEND
  
 Use, reproduction and disclosure by the US Government is
 subject to restrictions as set forth in subparagraphs (a)
 and (c) of the Commercial Computer Software - Restricted
 Rights clause in FAR 52.227-19.
  
 Gaussian, Inc.
 340 Quinnipiac St., Bldg. 40, Wallingford CT 06492
  
  
 ---------------------------------------------------------------
 Warning -- This program may not be used in any manner that
 competes with the business of Gaussian, Inc. or will provide
 assistance to any competitor of Gaussian, Inc.  The licensee
 of this program is prohibited from giving any competitor of
 Gaussian, Inc. access to this program.  By using this program,
 the user acknowledges that Gaussian, Inc. is engaged in the
 business of creating and licensing software in the field of
 computational chemistry and represents and warrants to the
 licensee that it is not a competitor of Gaussian, Inc. and that
 it will not use this program in any manner prohibited above.
 ---------------------------------------------------------------
  

 Cite this work as:
 Gaussian 03, Revision E.01,
 M. J. Frisch, G. W. Trucks, H. B. Schlegel, G. E. Scuseria, 
 M. A. Robb, J. R. Cheeseman, J. A. Montgomery, Jr., T. Vreven, 
 K. N. Kudin, J. C. Burant, J. M. Millam, S. S. Iyengar, J. Tomasi, 
 V. Barone, B. Mennucci, M. Cossi, G. Scalmani, N. Rega, 
 G. A. Petersson, H. Nakatsuji, M. Hada, M. Ehara, K. Toyota, 
 R. Fukuda, J. Hasegawa, M. Ishida, T. Nakajima, Y. Honda, O. Kitao, 
 H. Nakai, M. Klene, X. Li, J. E. Knox, H. P. Hratchian, J. B. Cross, 
 V. Bakken, C. Adamo, J. Jaramillo, R. Gomperts, R. E. Stratmann, 
 O. Yazyev, A. J. Austin, R. Cammi, C. Pomelli, J. W. Ochterski, 
 P. Y. Ayala, K. Morokuma, G. A. Voth, P. Salvador, J. J. Dannenberg, 
 V. G. Zakrzewski, S. Dapprich, A. D. Daniels, M. C. Strain, 
 O. Farkas, D. K. Malick, A. D. Rabuck, K. Raghavachari, 
 J. B. Foresman, J. V. Ortiz, Q. Cui, A. G. Baboul, S. Clifford, 
 J. Cioslowski, B. B. Stefanov, G. Liu, A. Liashenko, P. Piskorz, 
 I. Komaromi, R. L. Martin, D. J. Fox, T. Keith, M. A. Al-Laham, 
 C. Y. Peng, A. Nanayakkara, M. Challacombe, P. M. W. Gill, 
 B. Johnson, W. Chen, M. W. Wong, C. Gonzalez, and J. A. Pople, 
 Gaussian, Inc., Wallingford CT, 2004.
 
 ******************************************
 Gaussian 03:  AM64L-G03RevE.01 11-Sep-2007
                 4-Mar-2015 
 ******************************************
 %Chk=1A5T_sidechain_opt.chk
 %Mem=6000MB
 %NProcShared=12
 Will use up to   12 processors via shared memory.
 ----------------------------------------------------------------------
 #N B3LYP/6-31G* Freq=NoRaman Geom=AllCheckpoint Guess=Read Integral=(G
 rid=UltraFine) SCF=XQC IOp(7/33=1)
 ----------------------------------------------------------------------
 1/10=4,29=7,30=1,38=1/1,3;
 2/40=1/2;
 3/5=1,6=6,7=1,11=2,16=1,25=1,30=1,74=-5,75=5/1,2,3;
 4/5=1/1;
 5/5=2,8=3,13=1,38=6/2,8;
 8/6=4,10=90,11=11/1;
 11/6=1,8=1,9=11,15=111,16=1/1,2,10;
 10/6=1/2;
 6/7=2,8=2,9=2,10=2,18=1,28=1/1;
 7/8=1,10=1,25=1,33=1/1,2,3,16;
 1/10=4,30=1/3;
 99//99;
 ---
 CLR
 ---
 Redundant internal coordinates taken from checkpoint file:
 1A5T_sidechain_opt.chk
 Charge = -2 Multiplicity = 1
 H,0,17.1164823849,55.6007742401,50.05435395
 C,0,16.508563444,56.2649432891,49.4133082137
 H,0,15.7389468159,56.7346240487,50.0404052342
 C,0,15.8666166266,55.4951712107,48.2551423578
 S,0,14.8353133594,56.5581941795,47.1515750624
 H,0,17.1519212898,57.0601754837,49.0216142298
 H,0,16.6529236262,55.0143019898,47.6616957055
 H,0,15.2295577832,54.6906219136,48.6545653765
 H,0,15.7565092536,55.5909419181,42.8594201258
 C,0,14.8994602966,56.044089678,42.3494647013
 H,0,15.2656419988,56.5242653482,41.4319385588
 C,0,14.2321683978,57.0692637902,43.2710131238
 S,0,15.3553379886,58.4496711065,43.7685508154
 H,0,14.1966722763,55.2414440316,42.0599129898
 H,0,13.3533789907,57.5027412316,42.7684772479
 H,0,13.8725260296,56.561966049,44.1734127492
 H,0,15.4020568805,60.793755705,45.6836936786
 C,0,15.8408444761,61.3084158178,46.5451668817
 H,0,16.6212053941,61.9849904461,46.1717747872
 C,0,16.4286117311,60.288093688,47.5245652839
 S,0,17.7719818955,59.246828733,46.804242233
 H,0,15.0551661818,61.9214555995,47.0237670455
 H,0,16.8354243951,60.8137895323,48.4026080232
 H,0,15.632101778,59.6255326816,47.884293281
 H,0,19.7164785362,58.267743651,44.7373810777
 C,0,20.0980877233,57.4635167238,44.0995712425
 H,0,20.636017209,57.9206628579,43.2490170582
 C,0,18.947383324,56.5739932371,43.6193671787
 S,0,18.0267305076,55.7385918473,44.9834860438
 H,0,20.8199837678,56.8831735944,44.6890567522
 H,0,18.2394394072,57.1762678013,43.0372763065
 H,0,19.3426457482,55.7962003302,42.9475154675
 Zn,0,16.5108204826,57.5067982449,45.6793672164
 Recover connectivity data from disk.

 GradGradGradGradGradGradGradGradGradGradGradGradGradGradGradGradGradGrad
 Berny optimization.
 Initialization pass.
                           ----------------------------
                           !    Initial Parameters    !
                           ! (Angstroms and Degrees)  !
 --------------------------                            --------------------------
 ! Name  Definition              Value          Derivative Info.                !
 --------------------------------------------------------------------------------
 ! R1    R(1,2)                  1.1053         calculate D2E/DX2 analytically  !
 ! R2    R(2,3)                  1.0983         calculate D2E/DX2 analytically  !
 ! R3    R(2,4)                  1.5317         calculate D2E/DX2 analytically  !
 ! R4    R(2,6)                  1.0953         calculate D2E/DX2 analytically  !
 ! R5    R(4,5)                  1.847          calculate D2E/DX2 analytically  !
 ! R6    R(4,7)                  1.0962         calculate D2E/DX2 analytically  !
 ! R7    R(4,8)                  1.1012         calculate D2E/DX2 analytically  !
 ! R8    R(5,33)                 2.4238         calculate D2E/DX2 analytically  !
 ! R9    R(9,10)                 1.0954         calculate D2E/DX2 analytically  !
 ! R10   R(10,11)                1.0984         calculate D2E/DX2 analytically  !
 ! R11   R(10,12)                1.5315         calculate D2E/DX2 analytically  !
 ! R12   R(10,14)                1.1054         calculate D2E/DX2 analytically  !
 ! R13   R(12,13)                1.8479         calculate D2E/DX2 analytically  !
 ! R14   R(12,15)                1.1012         calculate D2E/DX2 analytically  !
 ! R15   R(12,16)                1.0959         calculate D2E/DX2 analytically  !
 ! R16   R(13,33)                2.4239         calculate D2E/DX2 analytically  !
 ! R17   R(17,18)                1.0952         calculate D2E/DX2 analytically  !
 ! R18   R(18,19)                1.0982         calculate D2E/DX2 analytically  !
 ! R19   R(18,20)                1.5316         calculate D2E/DX2 analytically  !
 ! R20   R(18,22)                1.1055         calculate D2E/DX2 analytically  !
 ! R21   R(20,21)                1.846          calculate D2E/DX2 analytically  !
 ! R22   R(20,23)                1.1013         calculate D2E/DX2 analytically  !
 ! R23   R(20,24)                1.0967         calculate D2E/DX2 analytically  !
 ! R24   R(21,33)                2.4256         calculate D2E/DX2 analytically  !
 ! R25   R(25,26)                1.0951         calculate D2E/DX2 analytically  !
 ! R26   R(26,27)                1.1053         calculate D2E/DX2 analytically  !
 ! R27   R(26,28)                1.5317         calculate D2E/DX2 analytically  !
 ! R28   R(26,30)                1.0979         calculate D2E/DX2 analytically  !
 ! R29   R(28,29)                1.8456         calculate D2E/DX2 analytically  !
 ! R30   R(28,31)                1.0967         calculate D2E/DX2 analytically  !
 ! R31   R(28,32)                1.1012         calculate D2E/DX2 analytically  !
 ! R32   R(29,33)                2.4308         calculate D2E/DX2 analytically  !
 ! A1    A(1,2,3)              108.1345         calculate D2E/DX2 analytically  !
 ! A2    A(1,2,4)              111.5356         calculate D2E/DX2 analytically  !
 ! A3    A(1,2,6)              108.7005         calculate D2E/DX2 analytically  !
 ! A4    A(3,2,4)              110.67           calculate D2E/DX2 analytically  !
 ! A5    A(3,2,6)              107.7765         calculate D2E/DX2 analytically  !
 ! A6    A(4,2,6)              109.9167         calculate D2E/DX2 analytically  !
 ! A7    A(2,4,5)              113.3633         calculate D2E/DX2 analytically  !
 ! A8    A(2,4,7)              109.2189         calculate D2E/DX2 analytically  !
 ! A9    A(2,4,8)              109.5955         calculate D2E/DX2 analytically  !
 ! A10   A(5,4,7)              109.2396         calculate D2E/DX2 analytically  !
 ! A11   A(5,4,8)              108.3117         calculate D2E/DX2 analytically  !
 ! A12   A(7,4,8)              106.9074         calculate D2E/DX2 analytically  !
 ! A13   A(4,5,33)             101.6646         calculate D2E/DX2 analytically  !
 ! A14   A(9,10,11)            107.9919         calculate D2E/DX2 analytically  !
 ! A15   A(9,10,12)            109.7358         calculate D2E/DX2 analytically  !
 ! A16   A(9,10,14)            108.6017         calculate D2E/DX2 analytically  !
 ! A17   A(11,10,12)           110.8095         calculate D2E/DX2 analytically  !
 ! A18   A(11,10,14)           108.0929         calculate D2E/DX2 analytically  !
 ! A19   A(12,10,14)           111.5088         calculate D2E/DX2 analytically  !
 ! A20   A(10,12,13)           113.4055         calculate D2E/DX2 analytically  !
 ! A21   A(10,12,15)           109.6697         calculate D2E/DX2 analytically  !
 ! A22   A(10,12,16)           109.1839         calculate D2E/DX2 analytically  !
 ! A23   A(13,12,15)           108.2921         calculate D2E/DX2 analytically  !
 ! A24   A(13,12,16)           108.8784         calculate D2E/DX2 analytically  !
 ! A25   A(15,12,16)           107.2231         calculate D2E/DX2 analytically  !
 ! A26   A(12,13,33)           102.2055         calculate D2E/DX2 analytically  !
 ! A27   A(17,18,19)           107.8625         calculate D2E/DX2 analytically  !
 ! A28   A(17,18,20)           110.1015         calculate D2E/DX2 analytically  !
 ! A29   A(17,18,22)           108.4436         calculate D2E/DX2 analytically  !
 ! A30   A(19,18,20)           110.8016         calculate D2E/DX2 analytically  !
 ! A31   A(19,18,22)           108.0926         calculate D2E/DX2 analytically  !
 ! A32   A(20,18,22)           111.4272         calculate D2E/DX2 analytically  !
 ! A33   A(18,20,21)           113.9237         calculate D2E/DX2 analytically  !
 ! A34   A(18,20,23)           109.4875         calculate D2E/DX2 analytically  !
 ! A35   A(18,20,24)           109.4809         calculate D2E/DX2 analytically  !
 ! A36   A(21,20,23)           108.1524         calculate D2E/DX2 analytically  !
 ! A37   A(21,20,24)           108.4051         calculate D2E/DX2 analytically  !
 ! A38   A(23,20,24)           107.1663         calculate D2E/DX2 analytically  !
 ! A39   A(20,21,33)           101.9599         calculate D2E/DX2 analytically  !
 ! A40   A(25,26,27)           108.3025         calculate D2E/DX2 analytically  !
 ! A41   A(25,26,28)           110.3228         calculate D2E/DX2 analytically  !
 ! A42   A(25,26,30)           107.7344         calculate D2E/DX2 analytically  !
 ! A43   A(27,26,28)           111.3804         calculate D2E/DX2 analytically  !
 ! A44   A(27,26,30)           108.1661         calculate D2E/DX2 analytically  !
 ! A45   A(28,26,30)           110.8136         calculate D2E/DX2 analytically  !
 ! A46   A(26,28,29)           113.9483         calculate D2E/DX2 analytically  !
 ! A47   A(26,28,31)           109.4169         calculate D2E/DX2 analytically  !
 ! A48   A(26,28,32)           109.3796         calculate D2E/DX2 analytically  !
 ! A49   A(29,28,31)           108.5943         calculate D2E/DX2 analytically  !
 ! A50   A(29,28,32)           108.0767         calculate D2E/DX2 analytically  !
 ! A51   A(31,28,32)           107.2038         calculate D2E/DX2 analytically  !
 ! A52   A(28,29,33)           101.1522         calculate D2E/DX2 analytically  !
 ! A53   A(5,33,13)            107.5499         calculate D2E/DX2 analytically  !
 ! A54   A(5,33,21)            111.008          calculate D2E/DX2 analytically  !
 ! A55   A(5,33,29)            108.6808         calculate D2E/DX2 analytically  !
 ! A56   A(13,33,21)           109.5356         calculate D2E/DX2 analytically  !
 ! A57   A(13,33,29)           110.7666         calculate D2E/DX2 analytically  !
 ! A58   A(21,33,29)           109.289          calculate D2E/DX2 analytically  !
 ! D1    D(1,2,4,5)            179.9084         calculate D2E/DX2 analytically  !
 ! D2    D(1,2,4,7)            -58.0371         calculate D2E/DX2 analytically  !
 ! D3    D(1,2,4,8)             58.7725         calculate D2E/DX2 analytically  !
 ! D4    D(3,2,4,5)             59.4768         calculate D2E/DX2 analytically  !
 ! D5    D(3,2,4,7)           -178.4687         calculate D2E/DX2 analytically  !
 ! D6    D(3,2,4,8)            -61.6591         calculate D2E/DX2 analytically  !
 ! D7    D(6,2,4,5)            -59.4547         calculate D2E/DX2 analytically  !
 ! D8    D(6,2,4,7)             62.5998         calculate D2E/DX2 analytically  !
 ! D9    D(6,2,4,8)            179.4094         calculate D2E/DX2 analytically  !
 ! D10   D(2,4,5,33)            83.1447         calculate D2E/DX2 analytically  !
 ! D11   D(7,4,5,33)           -38.8983         calculate D2E/DX2 analytically  !
 ! D12   D(8,4,5,33)          -154.9998         calculate D2E/DX2 analytically  !
 ! D13   D(4,5,33,13)          164.5664         calculate D2E/DX2 analytically  !
 ! D14   D(4,5,33,21)          -75.6227         calculate D2E/DX2 analytically  !
 ! D15   D(4,5,33,29)           44.6008         calculate D2E/DX2 analytically  !
 ! D16   D(9,10,12,13)          60.45           calculate D2E/DX2 analytically  !
 ! D17   D(9,10,12,15)        -178.357          calculate D2E/DX2 analytically  !
 ! D18   D(9,10,12,16)         -61.1443         calculate D2E/DX2 analytically  !
 ! D19   D(11,10,12,13)        -58.7202         calculate D2E/DX2 analytically  !
 ! D20   D(11,10,12,15)         62.4728         calculate D2E/DX2 analytically  !
 ! D21   D(11,10,12,16)        179.6855         calculate D2E/DX2 analytically  !
 ! D22   D(14,10,12,13)       -179.1759         calculate D2E/DX2 analytically  !
 ! D23   D(14,10,12,15)        -57.983          calculate D2E/DX2 analytically  !
 ! D24   D(14,10,12,16)         59.2297         calculate D2E/DX2 analytically  !
 ! D25   D(10,12,13,33)        -85.0294         calculate D2E/DX2 analytically  !
 ! D26   D(15,12,13,33)        153.0068         calculate D2E/DX2 analytically  !
 ! D27   D(16,12,13,33)         36.7357         calculate D2E/DX2 analytically  !
 ! D28   D(12,13,33,5)         -48.888          calculate D2E/DX2 analytically  !
 ! D29   D(12,13,33,21)       -169.6304         calculate D2E/DX2 analytically  !
 ! D30   D(12,13,33,29)         69.7449         calculate D2E/DX2 analytically  !
 ! D31   D(17,18,20,21)         60.7219         calculate D2E/DX2 analytically  !
 ! D32   D(17,18,20,23)       -178.0444         calculate D2E/DX2 analytically  !
 ! D33   D(17,18,20,24)        -60.8331         calculate D2E/DX2 analytically  !
 ! D34   D(19,18,20,21)        -58.5162         calculate D2E/DX2 analytically  !
 ! D35   D(19,18,20,23)         62.7174         calculate D2E/DX2 analytically  !
 ! D36   D(19,18,20,24)        179.9288         calculate D2E/DX2 analytically  !
 ! D37   D(22,18,20,21)       -178.9115         calculate D2E/DX2 analytically  !
 ! D38   D(22,18,20,23)        -57.6778         calculate D2E/DX2 analytically  !
 ! D39   D(22,18,20,24)         59.5335         calculate D2E/DX2 analytically  !
 ! D40   D(18,20,21,33)        -83.4359         calculate D2E/DX2 analytically  !
 ! D41   D(23,20,21,33)        154.5909         calculate D2E/DX2 analytically  !
 ! D42   D(24,20,21,33)         38.7134         calculate D2E/DX2 analytically  !
 ! D43   D(20,21,33,5)         -49.46           calculate D2E/DX2 analytically  !
 ! D44   D(20,21,33,13)         69.1598         calculate D2E/DX2 analytically  !
 ! D45   D(20,21,33,29)       -169.3217         calculate D2E/DX2 analytically  !
 ! D46   D(25,26,28,29)        -61.2003         calculate D2E/DX2 analytically  !
 ! D47   D(25,26,28,31)         60.5688         calculate D2E/DX2 analytically  !
 ! D48   D(25,26,28,32)        177.726          calculate D2E/DX2 analytically  !
 ! D49   D(27,26,28,29)        178.4931         calculate D2E/DX2 analytically  !
 ! D50   D(27,26,28,31)        -59.7378         calculate D2E/DX2 analytically  !
 ! D51   D(27,26,28,32)         57.4194         calculate D2E/DX2 analytically  !
 ! D52   D(30,26,28,29)         58.0281         calculate D2E/DX2 analytically  !
 ! D53   D(30,26,28,31)        179.7971         calculate D2E/DX2 analytically  !
 ! D54   D(30,26,28,32)        -63.0457         calculate D2E/DX2 analytically  !
 ! D55   D(26,28,29,33)         82.1672         calculate D2E/DX2 analytically  !
 ! D56   D(31,28,29,33)        -40.0554         calculate D2E/DX2 analytically  !
 ! D57   D(32,28,29,33)       -156.0364         calculate D2E/DX2 analytically  !
 ! D58   D(28,29,33,5)         167.9591         calculate D2E/DX2 analytically  !
 ! D59   D(28,29,33,13)         50.0136         calculate D2E/DX2 analytically  !
 ! D60   D(28,29,33,21)        -70.7574         calculate D2E/DX2 analytically  !
 --------------------------------------------------------------------------------
 Trust Radius=3.00D-01 FncErr=1.00D-07 GrdErr=1.00D-07
 Number of steps in this run=   2 maximum allowed number of steps=   2.
 GradGradGradGradGradGradGradGradGradGradGradGradGradGradGradGradGradGrad

                          Input orientation:                          
 ---------------------------------------------------------------------
 Center     Atomic     Atomic              Coordinates (Angstroms)
 Number     Number      Type              X           Y           Z
 ---------------------------------------------------------------------
    1          1             0       17.116482   55.600774   50.054354
    2          6             0       16.508563   56.264943   49.413308
    3          1             0       15.738947   56.734624   50.040405
    4          6             0       15.866617   55.495171   48.255142
    5         16             0       14.835313   56.558194   47.151575
    6          1             0       17.151921   57.060175   49.021614
    7          1             0       16.652924   55.014302   47.661696
    8          1             0       15.229558   54.690622   48.654565
    9          1             0       15.756509   55.590942   42.859420
   10          6             0       14.899460   56.044090   42.349465
   11          1             0       15.265642   56.524265   41.431939
   12          6             0       14.232168   57.069264   43.271013
   13         16             0       15.355338   58.449671   43.768551
   14          1             0       14.196672   55.241444   42.059913
   15          1             0       13.353379   57.502741   42.768477
   16          1             0       13.872526   56.561966   44.173413
   17          1             0       15.402057   60.793756   45.683694
   18          6             0       15.840844   61.308416   46.545167
   19          1             0       16.621205   61.984990   46.171775
   20          6             0       16.428612   60.288094   47.524565
   21         16             0       17.771982   59.246829   46.804242
   22          1             0       15.055166   61.921456   47.023767
   23          1             0       16.835424   60.813790   48.402608
   24          1             0       15.632102   59.625533   47.884293
   25          1             0       19.716479   58.267744   44.737381
   26          6             0       20.098088   57.463517   44.099571
   27          1             0       20.636017   57.920663   43.249017
   28          6             0       18.947383   56.573993   43.619367
   29         16             0       18.026731   55.738592   44.983486
   30          1             0       20.819984   56.883174   44.689057
   31          1             0       18.239439   57.176268   43.037276
   32          1             0       19.342646   55.796200   42.947515
   33         30             0       16.510820   57.506798   45.679367
 ---------------------------------------------------------------------
                    Distance matrix (angstroms):
                    1          2          3          4          5
     1  H    0.000000
     2  C    1.105272   0.000000
     3  H    1.784212   1.098253   0.000000
     4  C    2.193280   1.531663   2.177087   0.000000
     5  S    3.813989   2.828639   3.031999   1.847015   0.000000
     6  H    1.788200   1.095321   1.772122   2.165347   3.019222
     7  H    2.506721   2.157102   3.074593   1.096218   2.438756
     8  H    2.519577   2.165649   2.521502   1.101219   2.429452
     9  H    7.322342   6.631238   7.271510   5.397695   4.495194
    10  C    8.029759   7.248164   7.767377   6.009470   4.829977
    11  H    8.867045   8.081730   8.624034   6.926494   5.735902
    12  C    7.515946   6.599750   6.943129   5.476380   3.960270
    13  S    7.122441   6.161676   6.513425   5.396293   3.910622
    14  H    8.518538   7.775912   8.264167   6.421367   5.297803
    15  H    8.417982   7.459297   7.691676   6.360047   4.722271
    16  H    6.784734   5.873110   6.159135   4.666365   3.129924
    17  H    7.000642   5.970303   5.964141   5.907890   4.518391
    18  C    6.820471   5.840265   5.757312   6.059579   4.893202
    19  H    7.488520   6.575650   6.581112   6.857666   5.796511
    20  C    5.370657   4.445164   4.408201   4.880747   4.073067
    21  S    4.928146   4.158737   4.573528   4.450895   3.996676
    22  H    7.306469   6.310182   6.039113   6.593320   5.369287
    23  H    5.475654   4.671226   4.530368   5.408145   4.865760
    24  H    4.807414   3.794685   3.607989   4.153602   3.252739
    25  H    6.491757   6.013836   6.803916   5.906203   5.707597
    26  C    6.915144   6.523578   7.404519   6.248880   6.150702
    27  H    8.005100   7.601037   8.456414   7.327447   7.122812
    28  C    6.760799   6.293894   7.179805   5.669691   5.420873
    29  S    5.153760   4.712240   5.639013   3.927987   3.944300
    30  H    6.644312   6.425660   7.380781   6.259342   6.479652
    31  H    7.278914   6.669350   7.449250   5.973483   5.375644
    32  H    7.449909   7.075183   8.011016   6.351716   6.210539
    33  Zn   4.810433   3.935038   4.495631   3.331105   2.423751
                    6          7          8          9         10
     6  H    0.000000
     7  H    2.506786   0.000000
     8  H    3.073270   1.765369   0.000000
     9  H    6.486791   4.919138   5.888290   0.000000
    10  C    7.115026   5.688136   6.457177   1.095413   0.000000
    11  H    7.838905   6.558537   7.451838   1.774753   1.098413
    12  C    6.449376   5.418581   5.969536   2.162975   1.531506
    13  S    5.723031   5.351828   6.165988   3.026514   2.829921
    14  H    7.778597   6.120844   6.697738   1.787303   1.105437
    15  H    7.329837   6.404913   6.787790   3.072179   2.166473
    16  H    5.874326   4.721651   5.042241   2.493764   2.156288
    17  H    5.305032   6.235322   6.789998   5.930550   5.824862
    18  C    5.089132   6.443755   6.972692   6.803040   6.797297
    19  H    5.714634   7.128209   7.829990   7.252810   7.271091
    20  C    3.630949   5.280341   5.834923   6.654212   6.865241
    21  S    3.175321   4.461143   5.535940   5.743628   6.193057
    22  H    5.658606   7.118185   7.414504   7.609801   7.511110
    23  H    3.817454   5.849471   6.335256   7.692147   7.945976
    24  H    3.191302   4.728115   5.010859   6.445367   6.633086
    25  H    5.137103   5.340587   6.947848   5.135500   5.818114
    26  C    5.750573   5.527797   7.220769   4.888130   5.665984
    27  H    6.797223   6.616925   8.299574   5.421161   6.102361
    28  C    5.713522   4.902816   6.536248   3.424264   4.275410
    29  S    4.338013   3.095924   4.732784   3.112453   4.100148
    30  H    5.679530   5.449188   7.196208   5.536805   6.421086
    31  H    6.083459   5.345688   6.840450   2.951243   3.593101
    32  H    6.579634   5.483563   7.121111   3.593086   4.490101
    33  Zn   3.432360   3.187845   4.292352   3.491646   3.977970
                   11         12         13         14         15
    11  H    0.000000
    12  C    2.178827   0.000000
    13  S    3.029025   1.847858   0.000000
    14  H    1.784006   2.192932   3.815058   0.000000
    15  H    2.529921   1.101234   2.429951   2.515288   0.000000
    16  H    3.075366   1.095910   2.434353   2.513112   1.768733
    17  H    6.026988   4.589282   3.027323   6.738910   4.850396
    18  C    7.025956   5.592703   4.014690   7.721978   5.910502
    19  H    7.356842   6.187591   4.458294   8.262033   6.507817
    20  C    7.255274   5.768703   4.317332   7.766122   6.311546
    21  S    6.523476   5.454886   3.961193   7.164817   6.233241
    22  H    7.774478   6.189043   4.768629   8.366565   6.366208
    23  H    8.333935   6.865252   5.408715   8.845554   7.404803
    24  H    7.168335   5.456801   4.289357   7.429946   5.989190
    25  H    5.811679   5.802090   4.471161   6.840730   6.704539
    26  C    5.599195   5.937251   4.855487   6.627557   6.874914
    27  H    5.838889   6.460236   5.332480   7.075122   7.310431
    28  C    4.282819   4.753935   4.055023   5.174634   5.734062
    29  S    4.566660   4.370578   3.995292   4.843943   5.464312
    30  H    6.448903   6.741275   5.758785   7.312724   7.734512
    31  H    3.441756   4.015508   3.236411   4.587238   4.904327
    32  H    4.410103   5.276582   4.859386   5.251346   6.230221
    33  Zn   4.533927   3.344228   2.423916   4.856703   4.294500
                   16         17         18         19         20
    16  H    0.000000
    17  H    4.746415   0.000000
    18  C    5.659353   1.095238   0.000000
    19  H    6.399835   1.773016   1.098243   0.000000
    20  C    5.625640   2.167560   1.531584   2.178668   0.000000
    21  S    5.416226   3.043872   2.836645   3.036747   1.846007
    22  H    6.184439   1.785451   1.105516   1.783930   2.192036
    23  H    6.689011   3.073669   2.164239   2.528679   1.101277
    24  H    5.123688   2.502060   2.160770   3.078650   1.096731
    25  H    6.113879   5.088269   5.247315   5.045406   4.760281
    26  C    6.290935   5.970983   6.236049   6.068481   5.759676
    27  H    6.960271   6.447996   6.733139   6.417163   6.448822
    28  C    5.105026   5.885336   6.373825   6.419095   5.948893
    29  S    4.311795   5.738805   6.183841   6.511914   5.450599
    30  H    6.973968   6.755434   6.915182   6.771760   6.238408
    31  H    4.553911   5.304760   5.927327   5.963856   5.753114
    32  H    5.657865   6.927516   7.455885   7.490208   7.044011
    33  Zn   3.181384   3.468928   3.956106   4.506535   3.338730
                   21         22         23         24         25
    21  S    0.000000
    22  H    3.818757   0.000000
    23  H    2.426372   2.509471   0.000000
    24  H    2.426729   2.518853   1.768782   0.000000
    25  H    3.001931   6.348622   5.311940   5.331865   0.000000
    26  C    3.988260   7.338610   6.354953   6.240470   1.095084
    27  H    4.754055   7.835878   7.026677   7.030756   1.783604
    28  C    4.320769   7.438726   6.731689   6.204239   2.170312
    29  S    3.960780   7.156867   6.234359   5.408996   3.051627
    30  H    4.398999   8.004266   6.716913   6.681631   1.771184
    31  H    4.323861   6.967676   6.632466   6.024175   2.502663
    32  H    5.408157   8.515695   7.824346   7.266615   3.074394
    33  Zn   2.425609   4.838961   4.296231   3.181648   3.426751
                   26         27         28         29         30
    26  C    0.000000
    27  H    1.105348   0.000000
    28  C    1.531656   2.191384   0.000000
    29  S    2.836757   3.818140   1.845621   0.000000
    30  H    1.097919   1.784360   2.178637   3.032989   0.000000
    31  H    2.159990   2.518441   1.096699   2.428969   3.077904
    32  H    2.162838   2.505405   1.101172   2.424897   2.529230
    33  Zn   3.919964   4.805740   3.324239   2.430800   4.465256
                   31         32         33
    31  H    0.000000
    32  H    1.769098   0.000000
    33  Zn   3.174589   4.290500   0.000000
 Stoichiometry    C8H20S4Zn(2-)
 Framework group  C1[X(C8H20S4Zn)]
 Deg. of freedom    93
 Full point group                 C1
 Largest Abelian subgroup         C1      NOp   1
 Largest concise Abelian subgroup C1      NOp   1
                         Standard orientation:                         
 ---------------------------------------------------------------------
 Center     Atomic     Atomic              Coordinates (Angstroms)
 Number     Number      Type              X           Y           Z
 ---------------------------------------------------------------------
    1          1             0       -3.460486   -3.155438    1.197652
    2          6             0       -3.127125   -2.385482    0.478163
    3          1             0       -3.938918   -2.216176   -0.241897
    4          6             0       -1.843872   -2.808195   -0.243341
    5         16             0       -1.242511   -1.557029   -1.461706
    6          1             0       -2.959370   -1.448161    1.019472
    7          1             0       -1.058633   -2.997071    0.497886
    8          1             0       -2.015313   -3.756136   -0.776913
    9          1             0        3.195113   -1.021166   -0.985140
   10          6             0        3.451394   -0.516211   -1.922834
   11          1             0        4.191856    0.263081   -1.697152
   12          6             0        2.190968    0.094072   -2.542829
   13         16             0        1.374185    1.349148   -1.460134
   14          1             0        3.922118   -1.250772   -2.601678
   15          1             0        2.444715    0.575989   -3.499952
   16          1             0        1.474147   -0.705383   -2.762050
   17          1             0       -1.186604    2.959415   -1.341446
   18          6             0       -2.125753    3.215401   -0.839433
   19          1             0       -1.924426    4.048397   -0.152613
   20          6             0       -2.663704    2.000357   -0.077839
   21         16             0       -1.527116    1.377461    1.236661
   22          1             0       -2.845771    3.565389   -1.601831
   23          1             0       -3.624895    2.258379    0.393698
   24          1             0       -2.858164    1.183324   -0.783150
   25          1             0        0.910684    1.298244    2.986646
   26          6             0        1.806647    0.778652    3.342288
   27          1             0        2.506881    1.531851    3.747452
   28          6             0        2.445100   -0.021440    2.202903
   29         16             0        1.350120   -1.331554    1.502232
   30          1             0        1.504763    0.115273    4.163397
   31          1             0        2.734140    0.661659    1.395078
   32          1             0        3.365740   -0.503981    2.566434
   33         30             0       -0.015145   -0.031935   -0.032640
 ---------------------------------------------------------------------
 Rotational constants (GHZ):      0.3703902      0.3007155      0.2972272
 Standard basis: 6-31G(d) (6D, 7F)
 There are   272 symmetry adapted basis functions of A   symmetry.
 Integral buffers will be    131072 words long.
 Raffenetti 2 integral format.
 Two-electron integral symmetry is turned on.
   272 basis functions,   616 primitive gaussians,   275 cartesian basis functions
    82 alpha electrons       82 beta electrons
       nuclear repulsion energy      1822.3043608681 Hartrees.
 NAtoms=   33 NActive=   33 NUniq=   33 SFac= 7.50D-01 NAtFMM=   80 NAOKFM=F Big=F
 One-electron integrals computed using PRISM.
 NBasis=   272 RedAO= T  NBF=   272
 NBsUse=   272 1.00D-06 NBFU=   272
 Initial guess read from the checkpoint file:
 1A5T_sidechain_opt.chk
 Initial guess orbital symmetries:
       Occupied  (A) (A) (A) (A) (A) (A) (A) (A) (A) (A) (A) (A)
                 (A) (A) (A) (A) (A) (A) (A) (A) (A) (A) (A) (A)
                 (A) (A) (A) (A) (A) (A) (A) (A) (A) (A) (A) (A)
                 (A) (A) (A) (A) (A) (A) (A) (A) (A) (A) (A) (A)
                 (A) (A) (A) (A) (A) (A) (A) (A) (A) (A) (A) (A)
                 (A) (A) (A) (A) (A) (A) (A) (A) (A) (A) (A) (A)
                 (A) (A) (A) (A) (A) (A) (A) (A) (A) (A)
       Virtual   (A) (A) (A) (A) (A) (A) (A) (A) (A) (A) (A) (A)
                 (A) (A) (A) (A) (A) (A) (A) (A) (A) (A) (A) (A)
                 (A) (A) (A) (A) (A) (A) (A) (A) (A) (A) (A) (A)
                 (A) (A) (A) (A) (A) (A) (A) (A) (A) (A) (A) (A)
                 (A) (A) (A) (A) (A) (A) (A) (A) (A) (A) (A) (A)
                 (A) (A) (A) (A) (A) (A) (A) (A) (A) (A) (A) (A)
                 (A) (A) (A) (A) (A) (A) (A) (A) (A) (A) (A) (A)
                 (A) (A) (A) (A) (A) (A) (A) (A) (A) (A) (A) (A)
                 (A) (A) (A) (A) (A) (A) (A) (A) (A) (A) (A) (A)
                 (A) (A) (A) (A) (A) (A) (A) (A) (A) (A) (A) (A)
                 (A) (A) (A) (A) (A) (A) (A) (A) (A) (A) (A) (A)
                 (A) (A) (A) (A) (A) (A) (A) (A) (A) (A) (A) (A)
                 (A) (A) (A) (A) (A) (A) (A) (A) (A) (A) (A) (A)
                 (A) (A) (A) (A) (A) (A) (A) (A) (A) (A) (A) (A)
                 (A) (A) (A) (A) (A) (A) (A) (A) (A) (A) (A) (A)
                 (A) (A) (A) (A) (A) (A) (A) (A) (A) (A)
 Requested convergence on RMS density matrix=1.00D-08 within 128 cycles.
 Requested convergence on MAX density matrix=1.00D-06.
 Requested convergence on             energy=1.00D-06.
 No special actions if energy rises.
 Keep R1 integrals in memory in canonical form, NReq=   733628673.
 SCF Done:  E(RB+HF-LYP) =  -3688.89832749     A.U. after    1 cycles
             Convg  =    0.2680D-08             -V/T =  2.0031
             S**2   =   0.0000
 QCSCF skips out because SCF is already converged.
 Range of M.O.s used for correlation:     1   272
 NBasis=   272 NAE=    82 NBE=    82 NFC=     0 NFV=     0
 NROrb=    272 NOA=    82 NOB=    82 NVA=   190 NVB=   190

 **** Warning!!: The largest alpha MO coefficient is  0.23870191D+02

 Symmetrizing basis deriv contribution to polar:
 IMax=3 JMax=2 DiffMx= 0.00D+00
 G2DrvN: will do   34 centers at a time, making    1 passes doing MaxLOS=3.
 FoFDir/FoFCou used for L=0 through L=3.
 DoAtom=TTTTTTTTTTTTTTTTTTTTTTTTTTTTTTTTT
          Differentiating once with respect to electric field.
                with respect to dipole field.
          Differentiating once with respect to nuclear coordinates.
          Store integrals in memory, NReq=   722072708.
 CalDSu:  requested number of processors reduced to:  10 ShMem   1 Linda.
          There are 102 degrees of freedom in the 1st order CPHF.
    99 vectors were produced by pass  0.
 AX will form  99 AO Fock derivatives at one time.
 CalDSu:  requested number of processors reduced to:  11 ShMem   1 Linda.
    99 vectors were produced by pass  1.
 CalDSu:  requested number of processors reduced to:  11 ShMem   1 Linda.
    99 vectors were produced by pass  2.
 CalDSu:  requested number of processors reduced to:  11 ShMem   1 Linda.
    99 vectors were produced by pass  3.
 CalDSu:  requested number of processors reduced to:  11 ShMem   1 Linda.
    99 vectors were produced by pass  4.
 CalDSu:  requested number of processors reduced to:  11 ShMem   1 Linda.
    71 vectors were produced by pass  5.
     3 vectors were produced by pass  6.
     3 vectors were produced by pass  7.
 Inv2:  IOpt= 1 Iter= 1 AM= 4.06D-15 Conv= 1.00D-12.
 Inverted reduced A of dimension  572 with in-core refinement.
 CalDSu:  requested number of processors reduced to:  10 ShMem   1 Linda.
 Isotropic polarizability for W=    0.000000      199.24 Bohr**3.
 End of Minotr Frequency-dependent properties file   721 does not exist.

 **********************************************************************

            Population analysis using the SCF density.

 **********************************************************************

 Orbital symmetries:
       Occupied  (A) (A) (A) (A) (A) (A) (A) (A) (A) (A) (A) (A)
                 (A) (A) (A) (A) (A) (A) (A) (A) (A) (A) (A) (A)
                 (A) (A) (A) (A) (A) (A) (A) (A) (A) (A) (A) (A)
                 (A) (A) (A) (A) (A) (A) (A) (A) (A) (A) (A) (A)
                 (A) (A) (A) (A) (A) (A) (A) (A) (A) (A) (A) (A)
                 (A) (A) (A) (A) (A) (A) (A) (A) (A) (A) (A) (A)
                 (A) (A) (A) (A) (A) (A) (A) (A) (A) (A)
       Virtual   (A) (A) (A) (A) (A) (A) (A) (A) (A) (A) (A) (A)
                 (A) (A) (A) (A) (A) (A) (A) (A) (A) (A) (A) (A)
                 (A) (A) (A) (A) (A) (A) (A) (A) (A) (A) (A) (A)
                 (A) (A) (A) (A) (A) (A) (A) (A) (A) (A) (A) (A)
                 (A) (A) (A) (A) (A) (A) (A) (A) (A) (A) (A) (A)
                 (A) (A) (A) (A) (A) (A) (A) (A) (A) (A) (A) (A)
                 (A) (A) (A) (A) (A) (A) (A) (A) (A) (A) (A) (A)
                 (A) (A) (A) (A) (A) (A) (A) (A) (A) (A) (A) (A)
                 (A) (A) (A) (A) (A) (A) (A) (A) (A) (A) (A) (A)
                 (A) (A) (A) (A) (A) (A) (A) (A) (A) (A) (A) (A)
                 (A) (A) (A) (A) (A) (A) (A) (A) (A) (A) (A) (A)
                 (A) (A) (A) (A) (A) (A) (A) (A) (A) (A) (A) (A)
                 (A) (A) (A) (A) (A) (A) (A) (A) (A) (A) (A) (A)
                 (A) (A) (A) (A) (A) (A) (A) (A) (A) (A) (A) (A)
                 (A) (A) (A) (A) (A) (A) (A) (A) (A) (A) (A) (A)
                 (A) (A) (A) (A) (A) (A) (A) (A) (A) (A)
 The electronic state is 1-A.
 Alpha  occ. eigenvalues -- -346.93121 -88.54829 -88.54759 -88.54730 -88.54660
 Alpha  occ. eigenvalues --  -41.89735 -36.88156 -36.88152 -36.88112  -9.95409
 Alpha  occ. eigenvalues --   -9.95175  -9.95113  -9.95035  -9.94165  -9.94156
 Alpha  occ. eigenvalues --   -9.94061  -9.94005  -7.60917  -7.60839  -7.60816
 Alpha  occ. eigenvalues --   -7.60744  -5.57476  -5.57394  -5.57371  -5.57297
 Alpha  occ. eigenvalues --   -5.56828  -5.56748  -5.56733  -5.56656  -5.56608
 Alpha  occ. eigenvalues --   -5.56539  -5.56507  -5.56440  -4.47820  -2.86982
 Alpha  occ. eigenvalues --   -2.86973  -2.86889  -0.52303  -0.52187  -0.52055
 Alpha  occ. eigenvalues --   -0.52005  -0.40941  -0.40709  -0.40639  -0.40597
 Alpha  occ. eigenvalues --   -0.31799  -0.31542  -0.31350  -0.31064  -0.20354
 Alpha  occ. eigenvalues --   -0.20227  -0.20090  -0.20041  -0.17943  -0.17879
 Alpha  occ. eigenvalues --   -0.17796  -0.17552  -0.13668  -0.13519  -0.13490
 Alpha  occ. eigenvalues --   -0.13124  -0.13091  -0.12704  -0.12651  -0.12419
 Alpha  occ. eigenvalues --   -0.12300  -0.11212  -0.10914  -0.10858  -0.10777
 Alpha  occ. eigenvalues --   -0.07010  -0.05251  -0.05194  -0.04455  -0.00692
 Alpha  occ. eigenvalues --    0.04289   0.05062   0.05079   0.06957   0.07167
 Alpha  occ. eigenvalues --    0.07424   0.07511
 Alpha virt. eigenvalues --    0.29855   0.30288   0.30561   0.30971   0.33389
 Alpha virt. eigenvalues --    0.34063   0.34660   0.34801   0.34962   0.37382
 Alpha virt. eigenvalues --    0.37503   0.37591   0.38157   0.38360   0.38943
 Alpha virt. eigenvalues --    0.39070   0.39428   0.39683   0.40244   0.40390
 Alpha virt. eigenvalues --    0.40871   0.42422   0.43254   0.44105   0.44567
 Alpha virt. eigenvalues --    0.45500   0.46172   0.46579   0.47204   0.48038
 Alpha virt. eigenvalues --    0.48187   0.49241   0.54861   0.55321   0.55712
 Alpha virt. eigenvalues --    0.60121   0.64393   0.65020   0.65380   0.65918
 Alpha virt. eigenvalues --    0.67809   0.70084   0.71714   0.72623   0.73790
 Alpha virt. eigenvalues --    0.73984   0.74997   0.75720   0.77199   0.77328
 Alpha virt. eigenvalues --    0.78023   0.78506   0.80012   0.81937   0.82897
 Alpha virt. eigenvalues --    0.83775   0.85401   0.85947   0.86616   0.87152
 Alpha virt. eigenvalues --    0.88245   0.88535   0.89167   0.89562   0.89854
 Alpha virt. eigenvalues --    0.91446   0.92591   0.93263   0.93725   0.94890
 Alpha virt. eigenvalues --    0.95388   0.96012   0.97608   0.99130   0.99213
 Alpha virt. eigenvalues --    1.04185   1.09071   1.11039   1.11249   1.11351
 Alpha virt. eigenvalues --    1.11651   1.11805   1.11977   1.12053   1.13094
 Alpha virt. eigenvalues --    1.14021   1.14216   1.15089   1.15327   1.15622
 Alpha virt. eigenvalues --    1.15737   1.17284   1.18014   1.18865   1.19278
 Alpha virt. eigenvalues --    1.20933   1.22019   1.22310   1.22624   1.23073
 Alpha virt. eigenvalues --    1.23557   1.23744   1.24479   1.24928   1.25249
 Alpha virt. eigenvalues --    1.25384   1.27032   1.27755   1.28561   1.29675
 Alpha virt. eigenvalues --    1.30007   1.30304   1.30984   1.32043   1.32876
 Alpha virt. eigenvalues --    1.35024   1.44735   1.46138   1.49566   1.49874
 Alpha virt. eigenvalues --    1.70974   1.72737   1.75990   1.76390   1.79767
 Alpha virt. eigenvalues --    1.80032   1.80700   1.81020   1.82329   1.82911
 Alpha virt. eigenvalues --    1.82997   1.83823   1.91911   2.16499   2.16658
 Alpha virt. eigenvalues --    2.16901   2.17065   2.22220   2.22560   2.23127
 Alpha virt. eigenvalues --    2.23235   2.25207   2.25399   2.25667   2.26744
 Alpha virt. eigenvalues --    2.41825   2.41913   2.45722   2.45887   2.46760
 Alpha virt. eigenvalues --    2.47643   2.50324   2.52191   2.52313   2.53828
 Alpha virt. eigenvalues --    2.54338   2.54371   2.54461   2.55159   2.55361
 Alpha virt. eigenvalues --    2.55649   2.56031   2.56268   2.56770   2.56958
 Alpha virt. eigenvalues --    2.57001   2.67675   2.67765   2.68144   2.68315
 Alpha virt. eigenvalues --    2.68353   2.68586   2.76200   2.84017   2.84126
 Alpha virt. eigenvalues --    2.84739   2.84814   4.22742   4.22777   4.23414
 Alpha virt. eigenvalues --    4.26797   4.41040   4.42080   4.45148   4.45295
 Alpha virt. eigenvalues --    4.62585   4.63082   4.63360   4.64393  47.66000
          Condensed to atoms (all electrons):
              1          2          3          4          5          6
     1  H    0.726429   0.310159  -0.039880  -0.028193   0.007042  -0.031081
     2  C    0.310159   5.205470   0.358822   0.352419  -0.071573   0.375979
     3  H   -0.039880   0.358822   0.638459  -0.037092   0.006415  -0.028492
     4  C   -0.028193   0.352419  -0.037092   5.138482   0.248568  -0.032559
     5  S    0.007042  -0.071573   0.006415   0.248568  16.239241  -0.000141
     6  H   -0.031081   0.375979  -0.028492  -0.032559  -0.000141   0.485929
     7  H   -0.000464  -0.048179   0.006135   0.370656  -0.048466  -0.005302
     8  H   -0.001285  -0.052149  -0.005448   0.348472  -0.049357   0.005587
     9  H    0.000000   0.000000   0.000000   0.000000  -0.000366   0.000000
    10  C    0.000000   0.000000   0.000000  -0.000001   0.000161   0.000000
    11  H    0.000000   0.000000   0.000000   0.000000   0.000005   0.000000
    12  C    0.000000   0.000000   0.000000   0.000020  -0.006272   0.000000
    13  S    0.000000  -0.000013   0.000000   0.000357  -0.024180  -0.000035
    14  H    0.000000   0.000000   0.000000   0.000000   0.000003   0.000000
    15  H    0.000000   0.000000   0.000000   0.000000   0.000101   0.000000
    16  H    0.000000   0.000002   0.000000  -0.000093   0.010732   0.000000
    17  H    0.000000   0.000000   0.000000   0.000001  -0.000084   0.000001
    18  C    0.000000  -0.000005   0.000001   0.000000   0.000157   0.000021
    19  H    0.000000   0.000000   0.000000   0.000000   0.000004   0.000000
    20  C   -0.000004  -0.000149  -0.000036  -0.000009  -0.007639   0.000187
    21  S    0.000091  -0.006292   0.000214   0.000250  -0.023622   0.011716
    22  H    0.000000   0.000000   0.000000   0.000000   0.000015  -0.000001
    23  H    0.000000   0.000008   0.000003   0.000000   0.000111   0.000012
    24  H    0.000011   0.000400   0.000174  -0.000173   0.014287  -0.000230
    25  H    0.000000   0.000001   0.000000   0.000000  -0.000029  -0.000004
    26  C    0.000000   0.000000   0.000000   0.000000  -0.000013   0.000001
    27  H    0.000000   0.000000   0.000000   0.000000   0.000000   0.000000
    28  C    0.000000  -0.000001   0.000000   0.000024   0.000273   0.000001
    29  S    0.000003  -0.000036   0.000012  -0.003222  -0.023148  -0.000402
    30  H    0.000000   0.000000   0.000000   0.000000   0.000000   0.000000
    31  H    0.000000   0.000000   0.000000   0.000000  -0.000003   0.000000
    32  H    0.000000   0.000000   0.000000   0.000000  -0.000012   0.000000
    33  Zn  -0.000721   0.001831  -0.000249  -0.000144   0.201506   0.003600
              7          8          9         10         11         12
     1  H   -0.000464  -0.001285   0.000000   0.000000   0.000000   0.000000
     2  C   -0.048179  -0.052149   0.000000   0.000000   0.000000   0.000000
     3  H    0.006135  -0.005448   0.000000   0.000000   0.000000   0.000000
     4  C    0.370656   0.348472   0.000000  -0.000001   0.000000   0.000020
     5  S   -0.048466  -0.049357  -0.000366   0.000161   0.000005  -0.006272
     6  H   -0.005302   0.005587   0.000000   0.000000   0.000000   0.000000
     7  H    0.594672  -0.044013  -0.000002   0.000000   0.000000   0.000004
     8  H   -0.044013   0.718574   0.000000   0.000000   0.000000   0.000000
     9  H   -0.000002   0.000000   0.490577   0.376002  -0.028569  -0.032679
    10  C    0.000000   0.000000   0.376002   5.205427   0.358083   0.350765
    11  H    0.000000   0.000000  -0.028569   0.358083   0.641016  -0.037187
    12  C    0.000004   0.000000  -0.032679   0.350765  -0.037187   5.152329
    13  S    0.000003  -0.000014  -0.000339  -0.068795   0.006314   0.242160
    14  H    0.000000   0.000000  -0.031512   0.310668  -0.040135  -0.028085
    15  H    0.000000   0.000000   0.005626  -0.052360  -0.005235   0.347834
    16  H   -0.000016   0.000005  -0.005565  -0.046586   0.006045   0.368488
    17  H    0.000000   0.000000   0.000000   0.000002   0.000000  -0.000064
    18  C    0.000000   0.000000   0.000000   0.000000   0.000000   0.000012
    19  H    0.000000   0.000000   0.000000   0.000000   0.000000   0.000000
    20  C   -0.000003  -0.000002   0.000000   0.000000   0.000000   0.000000
    21  S   -0.000099  -0.000047  -0.000028  -0.000014   0.000000   0.000346
    22  H    0.000000   0.000000   0.000000   0.000000   0.000000   0.000000
    23  H    0.000000   0.000000   0.000000   0.000000   0.000000   0.000000
    24  H    0.000011   0.000010   0.000000   0.000000   0.000000   0.000001
    25  H    0.000001   0.000000   0.000001  -0.000001   0.000000   0.000001
    26  C    0.000000   0.000000   0.000037  -0.000007   0.000002   0.000000
    27  H    0.000000   0.000000  -0.000003   0.000001   0.000000   0.000000
    28  C   -0.000054   0.000000   0.000527  -0.000305  -0.000054  -0.000034
    29  S    0.007439   0.000031   0.012955  -0.007393   0.000247   0.000585
    30  H    0.000000   0.000000   0.000000   0.000000   0.000000   0.000000
    31  H    0.000001   0.000000  -0.000330   0.000773   0.000266  -0.000222
    32  H    0.000002   0.000000   0.000043   0.000017   0.000005   0.000001
    33  Zn  -0.006288  -0.002286   0.002573   0.000243  -0.000232   0.000089
             13         14         15         16         17         18
     1  H    0.000000   0.000000   0.000000   0.000000   0.000000   0.000000
     2  C   -0.000013   0.000000   0.000000   0.000002   0.000000  -0.000005
     3  H    0.000000   0.000000   0.000000   0.000000   0.000000   0.000001
     4  C    0.000357   0.000000   0.000000  -0.000093   0.000001   0.000000
     5  S   -0.024180   0.000003   0.000101   0.010732  -0.000084   0.000157
     6  H   -0.000035   0.000000   0.000000   0.000000   0.000001   0.000021
     7  H    0.000003   0.000000   0.000000  -0.000016   0.000000   0.000000
     8  H   -0.000014   0.000000   0.000000   0.000005   0.000000   0.000000
     9  H   -0.000339  -0.031512   0.005626  -0.005565   0.000000   0.000000
    10  C   -0.068795   0.310668  -0.052360  -0.046586   0.000002   0.000000
    11  H    0.006314  -0.040135  -0.005235   0.006045   0.000000   0.000000
    12  C    0.242160  -0.028085   0.347834   0.368488  -0.000064   0.000012
    13  S   16.245405   0.006745  -0.049342  -0.048618   0.011291  -0.005949
    14  H    0.006745   0.727691  -0.001505  -0.000432   0.000000   0.000000
    15  H   -0.049342  -0.001505   0.719355  -0.042842  -0.000010   0.000001
    16  H   -0.048618  -0.000432  -0.042842   0.584297  -0.000010   0.000001
    17  H    0.011291   0.000000  -0.000010  -0.000010   0.491741   0.378285
    18  C   -0.005949   0.000000   0.000001   0.000001   0.378285   5.201446
    19  H    0.000222   0.000000   0.000000   0.000000  -0.029346   0.359622
    20  C    0.000411   0.000000   0.000000   0.000001  -0.032326   0.349714
    21  S   -0.025452   0.000000  -0.000012   0.000006  -0.001707  -0.070736
    22  H    0.000070   0.000000   0.000000   0.000000  -0.032205   0.310972
    23  H   -0.000040   0.000000   0.000000   0.000000   0.005545  -0.051669
    24  H   -0.000568   0.000000   0.000000  -0.000003  -0.005454  -0.046618
    25  H   -0.000060   0.000000   0.000000   0.000000  -0.000002  -0.000007
    26  C    0.000130   0.000000   0.000000   0.000000   0.000000   0.000000
    27  H    0.000015   0.000000   0.000000   0.000000   0.000000   0.000000
    28  C   -0.007835  -0.000006  -0.000003  -0.000006   0.000001   0.000000
    29  S   -0.024073   0.000099  -0.000048  -0.000151  -0.000023  -0.000014
    30  H    0.000006   0.000000   0.000000   0.000000   0.000000   0.000000
    31  H    0.014741   0.000019   0.000013   0.000017  -0.000002   0.000000
    32  H    0.000120   0.000000   0.000000   0.000000   0.000000   0.000000
    33  Zn   0.197612  -0.000353  -0.001947  -0.004389   0.004112  -0.000506
             19         20         21         22         23         24
     1  H    0.000000  -0.000004   0.000091   0.000000   0.000000   0.000011
     2  C    0.000000  -0.000149  -0.006292   0.000000   0.000008   0.000400
     3  H    0.000000  -0.000036   0.000214   0.000000   0.000003   0.000174
     4  C    0.000000  -0.000009   0.000250   0.000000   0.000000  -0.000173
     5  S    0.000004  -0.007639  -0.023622   0.000015   0.000111   0.014287
     6  H    0.000000   0.000187   0.011716  -0.000001   0.000012  -0.000230
     7  H    0.000000  -0.000003  -0.000099   0.000000   0.000000   0.000011
     8  H    0.000000  -0.000002  -0.000047   0.000000   0.000000   0.000010
     9  H    0.000000   0.000000  -0.000028   0.000000   0.000000   0.000000
    10  C    0.000000   0.000000  -0.000014   0.000000   0.000000   0.000000
    11  H    0.000000   0.000000   0.000000   0.000000   0.000000   0.000000
    12  C    0.000000   0.000000   0.000346   0.000000   0.000000   0.000001
    13  S    0.000222   0.000411  -0.025452   0.000070  -0.000040  -0.000568
    14  H    0.000000   0.000000   0.000000   0.000000   0.000000   0.000000
    15  H    0.000000   0.000000  -0.000012   0.000000   0.000000   0.000000
    16  H    0.000000   0.000001   0.000006   0.000000   0.000000  -0.000003
    17  H   -0.029346  -0.032326  -0.001707  -0.032205   0.005545  -0.005454
    18  C    0.359622   0.349714  -0.070736   0.310972  -0.051669  -0.046618
    19  H    0.637903  -0.037030   0.006128  -0.040165  -0.005287   0.005983
    20  C   -0.037030   5.164756   0.239563  -0.028029   0.346750   0.363561
    21  S    0.006128   0.239563  16.253234   0.006875  -0.048326  -0.046540
    22  H   -0.040165  -0.028029   0.006875   0.728270  -0.001757  -0.000421
    23  H   -0.005287   0.346750  -0.048326  -0.001757   0.718706  -0.042246
    24  H    0.005983   0.363561  -0.046540  -0.000421  -0.042246   0.585179
    25  H    0.000003  -0.000067   0.008449   0.000000   0.000001   0.000003
    26  C   -0.000001   0.000020  -0.003386   0.000000   0.000000  -0.000001
    27  H    0.000000   0.000000   0.000004   0.000000   0.000000   0.000000
    28  C    0.000000   0.000000   0.000241   0.000000   0.000000   0.000000
    29  S    0.000000   0.000342  -0.025181   0.000000  -0.000012  -0.000006
    30  H    0.000000   0.000000   0.000095   0.000000   0.000000   0.000000
    31  H    0.000000   0.000001  -0.000518   0.000000   0.000000   0.000000
    32  H    0.000000   0.000000  -0.000037   0.000000   0.000000   0.000000
    33  Zn   0.000230   0.001529   0.193231   0.000116  -0.002137  -0.005241
             25         26         27         28         29         30
     1  H    0.000000   0.000000   0.000000   0.000000   0.000003   0.000000
     2  C    0.000001   0.000000   0.000000  -0.000001  -0.000036   0.000000
     3  H    0.000000   0.000000   0.000000   0.000000   0.000012   0.000000
     4  C    0.000000   0.000000   0.000000   0.000024  -0.003222   0.000000
     5  S   -0.000029  -0.000013   0.000000   0.000273  -0.023148   0.000000
     6  H   -0.000004   0.000001   0.000000   0.000001  -0.000402   0.000000
     7  H    0.000001   0.000000   0.000000  -0.000054   0.007439   0.000000
     8  H    0.000000   0.000000   0.000000   0.000000   0.000031   0.000000
     9  H    0.000001   0.000037  -0.000003   0.000527   0.012955   0.000000
    10  C   -0.000001  -0.000007   0.000001  -0.000305  -0.007393   0.000000
    11  H    0.000000   0.000002   0.000000  -0.000054   0.000247   0.000000
    12  C    0.000001   0.000000   0.000000  -0.000034   0.000585   0.000000
    13  S   -0.000060   0.000130   0.000015  -0.007835  -0.024073   0.000006
    14  H    0.000000   0.000000   0.000000  -0.000006   0.000099   0.000000
    15  H    0.000000   0.000000   0.000000  -0.000003  -0.000048   0.000000
    16  H    0.000000   0.000000   0.000000  -0.000006  -0.000151   0.000000
    17  H   -0.000002   0.000000   0.000000   0.000001  -0.000023   0.000000
    18  C   -0.000007   0.000000   0.000000   0.000000  -0.000014   0.000000
    19  H    0.000003  -0.000001   0.000000   0.000000   0.000000   0.000000
    20  C   -0.000067   0.000020   0.000000   0.000000   0.000342   0.000000
    21  S    0.008449  -0.003386   0.000004   0.000241  -0.025181   0.000095
    22  H    0.000000   0.000000   0.000000   0.000000   0.000000   0.000000
    23  H    0.000001   0.000000   0.000000   0.000000  -0.000012   0.000000
    24  H    0.000003  -0.000001   0.000000   0.000000  -0.000006   0.000000
    25  H    0.495908   0.379635  -0.032536  -0.032293  -0.001443  -0.029946
    26  C    0.379635   5.196163   0.311926   0.349939  -0.071868   0.360802
    27  H   -0.032536   0.311926   0.725505  -0.028204   0.006916  -0.039848
    28  C   -0.032293   0.349939  -0.028204   5.156234   0.251686  -0.036587
    29  S   -0.001443  -0.071868   0.006916   0.251686  16.239544   0.006045
    30  H   -0.029946   0.360802  -0.039848  -0.036587   0.006045   0.633778
    31  H   -0.005630  -0.047454  -0.000224   0.363605  -0.048743   0.006011
    32  H    0.005638  -0.051697  -0.001806   0.347334  -0.049683  -0.005181
    33  Zn   0.003354   0.000016   0.000060  -0.003822   0.203714   0.000280
             31         32         33
     1  H    0.000000   0.000000  -0.000721
     2  C    0.000000   0.000000   0.001831
     3  H    0.000000   0.000000  -0.000249
     4  C    0.000000   0.000000  -0.000144
     5  S   -0.000003  -0.000012   0.201506
     6  H    0.000000   0.000000   0.003600
     7  H    0.000001   0.000002  -0.006288
     8  H    0.000000   0.000000  -0.002286
     9  H   -0.000330   0.000043   0.002573
    10  C    0.000773   0.000017   0.000243
    11  H    0.000266   0.000005  -0.000232
    12  C   -0.000222   0.000001   0.000089
    13  S    0.014741   0.000120   0.197612
    14  H    0.000019   0.000000  -0.000353
    15  H    0.000013   0.000000  -0.001947
    16  H    0.000017   0.000000  -0.004389
    17  H   -0.000002   0.000000   0.004112
    18  C    0.000000   0.000000  -0.000506
    19  H    0.000000   0.000000   0.000230
    20  C    0.000001   0.000000   0.001529
    21  S   -0.000518  -0.000037   0.193231
    22  H    0.000000   0.000000   0.000116
    23  H    0.000000   0.000000  -0.002137
    24  H    0.000000   0.000000  -0.005241
    25  H   -0.005630   0.005638   0.003354
    26  C   -0.047454  -0.051697   0.000016
    27  H   -0.000224  -0.001806   0.000060
    28  C    0.363605   0.347334  -0.003822
    29  S   -0.048743  -0.049683   0.203714
    30  H    0.006011  -0.005181   0.000280
    31  H    0.586382  -0.042060  -0.004687
    32  H   -0.042060   0.718305  -0.001898
    33  Zn  -0.004687  -0.001898  28.707690
 Mulliken atomic charges:
              1
     1  H    0.057892
     2  C   -0.426693
     3  H    0.100962
     4  C   -0.357762
     5  S   -0.473716
     6  H    0.215214
     7  H    0.173964
     8  H    0.081923
     9  H    0.211051
    10  C   -0.426680
    11  H    0.099429
    12  C   -0.358092
    13  S   -0.470290
    14  H    0.056802
    15  H    0.080375
    16  H    0.179118
    17  H    0.210255
    18  C   -0.424729
    19  H    0.101734
    20  C   -0.361541
    21  S   -0.468450
    22  H    0.056257
    23  H    0.080338
    24  H    0.177880
    25  H    0.209024
    26  C   -0.424245
    27  H    0.058195
    28  C   -0.360661
    29  S   -0.474169
    30  H    0.104547
    31  H    0.178043
    32  H    0.080909
    33  Zn   0.513115
 Sum of Mulliken charges=  -2.00000
 Atomic charges with hydrogens summed into heavy atoms:
              1
     1  H    0.000000
     2  C   -0.052623
     3  H    0.000000
     4  C   -0.101875
     5  S   -0.473716
     6  H    0.000000
     7  H    0.000000
     8  H    0.000000
     9  H    0.000000
    10  C   -0.059399
    11  H    0.000000
    12  C   -0.098599
    13  S   -0.470290
    14  H    0.000000
    15  H    0.000000
    16  H    0.000000
    17  H    0.000000
    18  C   -0.056483
    19  H    0.000000
    20  C   -0.103323
    21  S   -0.468450
    22  H    0.000000
    23  H    0.000000
    24  H    0.000000
    25  H    0.000000
    26  C   -0.052479
    27  H    0.000000
    28  C   -0.101708
    29  S   -0.474169
    30  H    0.000000
    31  H    0.000000
    32  H    0.000000
    33  Zn   0.513115
 Sum of Mulliken charges=  -2.00000
 APT atomic charges:
              1
     1  H   -0.143594
     2  C    0.085863
     3  H   -0.056964
     4  C    0.221938
     5  S   -0.722815
     6  H    0.036903
     7  H   -0.046460
     8  H   -0.148513
     9  H    0.036384
    10  C    0.086449
    11  H   -0.058224
    12  C    0.206197
    13  S   -0.728658
    14  H   -0.147370
    15  H   -0.149495
    16  H   -0.031985
    17  H    0.034734
    18  C    0.096784
    19  H   -0.060492
    20  C    0.205414
    21  S   -0.747023
    22  H   -0.145791
    23  H   -0.148273
    24  H   -0.035860
    25  H    0.024067
    26  C    0.102385
    27  H   -0.142090
    28  C    0.213705
    29  S   -0.749342
    30  H   -0.057569
    31  H   -0.033210
    32  H   -0.144893
    33  Zn   1.147797
 Sum of APT charges=  -2.00000
 APT Atomic charges with hydrogens summed into heavy atoms:
              1
     1  H    0.000000
     2  C   -0.077791
     3  H    0.000000
     4  C    0.026966
     5  S   -0.722815
     6  H    0.000000
     7  H    0.000000
     8  H    0.000000
     9  H    0.000000
    10  C   -0.082761
    11  H    0.000000
    12  C    0.024717
    13  S   -0.728658
    14  H    0.000000
    15  H    0.000000
    16  H    0.000000
    17  H    0.000000
    18  C   -0.074765
    19  H    0.000000
    20  C    0.021281
    21  S   -0.747023
    22  H    0.000000
    23  H    0.000000
    24  H    0.000000
    25  H    0.000000
    26  C   -0.073208
    27  H    0.000000
    28  C    0.035601
    29  S   -0.749342
    30  H    0.000000
    31  H    0.000000
    32  H    0.000000
    33  Zn   1.147797
 Sum of APT charges=  -2.00000
 Electronic spatial extent (au):  <R**2>=  5199.7169
 Charge=    -2.0000 electrons
 Dipole moment (field-independent basis, Debye):
    X=     0.1214    Y=    -0.1268    Z=     0.0340  Tot=     0.1788
 Quadrupole moment (field-independent basis, Debye-Ang):
   XX=  -165.6660   YY=  -163.8049   ZZ=  -163.9481
   XY=     0.6424   XZ=     0.8307   YZ=     0.1840
 Traceless Quadrupole moment (field-independent basis, Debye-Ang):
   XX=    -1.1930   YY=     0.6681   ZZ=     0.5248
   XY=     0.6424   XZ=     0.8307   YZ=     0.1840
 Octapole moment (field-independent basis, Debye-Ang**2):
  XXX=    -3.1032  YYY=   -12.2285  ZZZ=   -13.3802  XYY=    13.2990
  XXY=     4.6420  XXZ=     3.6364  XZZ=    -9.7268  YZZ=     0.1272
  YYZ=     5.7520  XYZ=    22.0635
 Hexadecapole moment (field-independent basis, Debye-Ang**3):
 XXXX= -3484.4911 YYYY= -2421.1467 ZZZZ= -2358.7877 XXXY=    -6.7119
 XXXZ=    51.4709 YYYX=    18.8523 YYYZ=    28.7088 ZZZX=   -28.9356
 ZZZY=   -25.9664 XXYY= -1045.6693 XXZZ= -1021.4874 YYZZ=  -835.6998
 XXYZ=     1.8383 YYXZ=    -8.8859 ZZXY=    -5.0235
 N-N= 1.822304360868D+03 E-N=-1.246788850260D+04  KE= 3.677498315554D+03
  Exact polarizability: 211.900  -1.677 193.782  -0.959  -0.566 192.043
 Approx polarizability: 281.378  -0.734 281.538   0.688  -1.043 279.484
 Use density number 0.
 Entering OneElI...
 Calculate overlap and kinetic energy integrals
    NBasis = 275  MinDer = 2  MaxDer = 2
 Requested accuracy = 0.1000D-12
 PrsmSu:  NPrtUS=   1 ThrOK=F
 PRISM was handed   785695523 working-precision words and  4860 shell-pairs
 Entering OneElI...
 Calculate potential energy integrals
    NBasis = 275  MinDer = 2  MaxDer = 2
 Requested accuracy = 0.1000D-12
 PrsmSu:  NPrtUS=  12 ThrOK=T
 PRISM was handed    65365409 working-precision words and  3846 shell-pairs
 PRISM was handed    65365409 working-precision words and  3846 shell-pairs
 PRISM was handed    65365409 working-precision words and  3846 shell-pairs
 PRISM was handed    65365409 working-precision words and  3846 shell-pairs
 PRISM was handed    65365409 working-precision words and  3846 shell-pairs
 PRISM was handed    65365409 working-precision words and  3846 shell-pairs
 PRISM was handed    65365409 working-precision words and  3846 shell-pairs
 PRISM was handed    65365409 working-precision words and  3846 shell-pairs
 PRISM was handed    65365409 working-precision words and  3846 shell-pairs
 PRISM was handed    65365409 working-precision words and  3846 shell-pairs
 PRISM was handed    65365409 working-precision words and  3846 shell-pairs
 PRISM was handed    65365409 working-precision words and  3846 shell-pairs
 Polarizability after L701:
                1             2             3
      1  0.211900D+03
      2 -0.167737D+01  0.193782D+03
      3 -0.959075D+00 -0.565848D+00  0.192043D+03
 Dipole Derivatives after L701:
               1            2            3            4            5
      1-0.122640D+00-0.137817D+00 0.177251D+00 0.105400D+00-0.178224D-01
      2-0.119614D+00-0.162581D+00 0.194928D+00 0.461694D-01 0.487573D-01
      3 0.126847D+00 0.171663D+00-0.145560D+00 0.187076D-01-0.875322D-01
               6            7            8            9           10
      1 0.726040D-01-0.147724D+00 0.329995D-01-0.147412D+00 0.159958D+00
      2-0.101977D+00 0.617872D-02 0.309921D-01 0.146034D-02 0.133221D+00
      3 0.103432D+00-0.783991D-01 0.226038D-01-0.541598D-01-0.797201D-01
              11           12           13           14           15
      1 0.133993D+00-0.209558D+00-0.748076D+00-0.194991D+00-0.107106D-01
      2 0.328622D+00-0.134699D+00-0.184655D+00-0.742836D+00-0.180432D+00
      3-0.454483D-01 0.177234D+00-0.815079D-01-0.121458D+00-0.677533D+00
              16           17           18           19           20
      1 0.667568D-01 0.417856D-01-0.127249D-01-0.464672D-01 0.664655D-01
      2 0.323904D-01 0.320095D-01-0.485041D-01 0.281150D-01 0.313179D-02
      3-0.113331D-01-0.526937D-01 0.119438D-01-0.113617D-01 0.922602D-01
              21           22           23           24           25
      1-0.195469D-01-0.557183D-01-0.111602D+00 0.451226D-01 0.812964D-01
      2 0.110699D+00-0.119668D+00-0.353332D+00-0.430644D-01-0.139655D-01
      3-0.960439D-01 0.187588D-01-0.797143D-01-0.364880D-01-0.367492D-01
              26           27           28           29           30
      1-0.110818D-01-0.403391D-01 0.106725D+00 0.613582D-01 0.236198D-01
      2 0.149795D-01 0.471820D-01 0.397427D-02 0.117751D+00 0.834427D-01
      3 0.388613D-01 0.128757D-01-0.436538D-01 0.107994D+00 0.348710D-01
              31           32           33           34           35
      1-0.128847D+00-0.154432D+00-0.449444D-01 0.181683D+00-0.246390D+00
      2-0.807235D-01-0.699395D-01-0.308762D-01-0.967453D-01 0.159258D+00
      3-0.210213D-01-0.161958D-01 0.241141D-01-0.130008D+00 0.100981D+00
              36           37           38           39           40
      1-0.140977D+00-0.804555D+00-0.151052D-01 0.179336D+00-0.181089D+00
      2 0.398255D-01-0.913533D-01-0.670537D+00 0.114364D+00 0.158389D+00
      3 0.277648D+00 0.168630D+00 0.170860D+00-0.710881D+00 0.123223D+00
              41           42           43           44           45
      1 0.211948D+00 0.136254D+00-0.918370D-01 0.453011D-01 0.138254D+00
      2-0.149263D+00-0.145608D+00 0.175254D-01-0.261995D-01 0.679101D-01
      3-0.164829D+00-0.111759D+00 0.147892D+00 0.375099D-01-0.330447D+00
              46           47           48           49           50
      1-0.475512D-02 0.137031D-01-0.692683D-01 0.124685D-01-0.259791D-01
      2 0.172096D-01-0.100557D+00-0.864575D-01-0.346918D-01 0.797069D-01
      3-0.351693D-01-0.105095D+00 0.935713D-02 0.446282D-01-0.988965D-02
              51           52           53           54           55
      1 0.380418D-01 0.532055D-01-0.444689D-01 0.105290D+00 0.259547D-01
      2-0.946462D-02 0.794491D-02 0.115765D+00 0.674315D-01-0.372059D-01
      3 0.120259D-01 0.784696D-01 0.125276D-01 0.121380D+00-0.179759D-01
              56           57           58           59           60
      1-0.142141D-01-0.651850D-02 0.259965D+00-0.110828D+00 0.140471D+00
      2-0.162382D+00-0.148953D+00-0.126952D+00 0.165250D+00-0.237654D+00
      3-0.715485D-01-0.450471D-01 0.321935D-01-0.140509D+00 0.191026D+00
              61           62           63           64           65
      1-0.745250D+00 0.170027D+00 0.983928D-01-0.130258D+00 0.107393D+00
      2 0.176393D+00-0.816903D+00-0.642109D-01 0.129212D+00-0.126413D+00
      3 0.118967D+00-0.503667D-01-0.678915D+00-0.164128D+00 0.140384D+00
              66           67           68           69           70
      1-0.187371D+00-0.344362D+00 0.137300D+00 0.142240D-01-0.665263D-02
      2 0.194238D+00 0.129996D+00-0.650062D-01 0.484966D-01-0.725480D-01
      3-0.180701D+00 0.578436D-01 0.326861D-01-0.354492D-01-0.742509D-01
              71           72           73           74           75
      1-0.407986D-01-0.104093D+00-0.795989D-02 0.465655D-01 0.923797D-03
      2 0.285723D-03-0.540124D-02 0.494026D-01 0.959316D-02 0.192552D-01
      3-0.604238D-03-0.101213D+00 0.107127D-01 0.205086D-01 0.705662D-01
              76           77           78           79           80
      1 0.721881D-01 0.998870D-01 0.427220D-01-0.112293D+00-0.166139D+00
      2 0.702044D-01 0.112877D+00-0.903980D-02-0.150333D+00-0.176087D+00
      3-0.499335D-02-0.617270D-01 0.122089D+00-0.127835D+00-0.204252D+00
              81           82           83           84           85
      1-0.102818D+00 0.249821D+00 0.130251D+00 0.114693D+00-0.715751D+00
      2-0.150560D+00 0.357644D-01 0.201499D+00 0.128113D+00 0.104355D+00
      3-0.137890D+00 0.146336D+00 0.255658D+00 0.189794D+00-0.169186D+00
              86           87           88           89           90
      1 0.978865D-01-0.161350D+00 0.186440D-01-0.228238D-01 0.349233D-01
      2-0.688726D+00 0.667173D-01-0.247973D-01-0.378058D-01 0.652518D-01
      3 0.744112D-01-0.843548D+00 0.588156D-01 0.140755D+00-0.153545D+00
              91           92           93           94           95
      1-0.190640D-01-0.103741D+00 0.437754D-01-0.307262D+00 0.215707D-01
      2-0.726652D-01-0.936695D-01-0.440055D-02 0.656183D-01-0.373285D-01
      3 0.740960D-01-0.552025D-02 0.131027D-01-0.153836D+00-0.430815D-01
              96           97           98           99
      1-0.161144D+00 0.132649D+01-0.199729D-03 0.128775D-01
      2-0.236949D-01 0.138542D-01 0.105909D+01 0.175683D+00
      3-0.900889D-01 0.150079D-01-0.159198D+00 0.105781D+01
 Hessian after L701:
                1             2             3             4             5
      1  0.500640D+01
      2 -0.907874D+00  0.413486D+01
      3  0.827571D+00  0.137194D+01  0.413728D+01
      4 -0.549239D+01  0.620709D+00 -0.595734D+00  0.209129D+02
      5  0.727440D+00 -0.422541D+01 -0.148740D+01 -0.944959D+00  0.226367D+02
      6 -0.724166D+00 -0.154922D+01 -0.428924D+01  0.109335D+01 -0.959815D+00
      7  0.273303D+00  0.159923D+00 -0.222508D+00 -0.439243D+01 -0.720845D+00
      8  0.108805D+00  0.822669D-01  0.350612D+00 -0.465752D+00 -0.638290D+01
      9 -0.155326D+00  0.372430D+00 -0.244370D+00  0.176544D+01 -0.566514D+00
     10 -0.606928D-01 -0.435270D-02  0.189825D+00 -0.435530D+01 -0.107278D+01
     11  0.187063D-01  0.244601D+00 -0.450797D-01 -0.150267D+01 -0.861753D+01
     12  0.207030D+00 -0.254584D-01  0.498207D-01 -0.282190D+01  0.714282D+00
     13  0.241372D-01  0.124685D+00 -0.153637D+00  0.604222D+00 -0.128675D+00
     14  0.129208D+00  0.440746D-01 -0.171145D+00 -0.242912D+00 -0.461866D+00
     15 -0.168470D+00 -0.181798D+00  0.144872D+00 -0.164448D+00  0.479934D+00
     16  0.213438D+00 -0.163239D+00  0.127534D-01 -0.736379D+01  0.430943D+00
     17 -0.216602D+00 -0.400912D+00  0.750172D-01  0.885210D+00 -0.365431D+01
     18  0.158468D-01  0.662378D-01  0.279256D+00  0.592110D+00  0.232846D+01
     19 -0.114912D-01  0.329144D-02 -0.108797D-03 -0.601674D+00  0.174706D+00
     20 -0.161503D-03  0.774108D-03 -0.953290D-03  0.316633D+00  0.359748D+00
     21  0.882414D-02  0.228415D-02 -0.319057D-02 -0.562979D-01  0.841958D-02
     22 -0.722598D-02  0.459868D-02  0.152954D-01  0.210167D+00  0.264354D+00
     23  0.524407D-02  0.227904D-02 -0.432733D-02  0.352673D+00  0.451396D-01
     24  0.153255D-01 -0.827522D-02 -0.126513D-01  0.304464D+00 -0.337248D+00
     25  0.151253D-03  0.841784D-04 -0.905486D-04  0.236672D-02  0.110743D-02
     26 -0.407569D-03 -0.857403D-03  0.551867D-03 -0.143757D-02 -0.389853D-02
     27  0.944239D-03  0.121667D-02 -0.143349D-02  0.320870D-02  0.228858D-02
     28  0.237248D-02  0.272639D-02 -0.287048D-02  0.186871D-01  0.128940D-01
     29  0.237651D-02  0.582922D-03 -0.225371D-02  0.124012D-01 -0.120722D-01
     30 -0.303690D-02 -0.282294D-02  0.108448D-02 -0.176010D-01 -0.800739D-02
     31  0.824385D-03  0.119081D-02 -0.102798D-02  0.361315D-02  0.365374D-02
     32  0.823629D-03  0.896043D-03 -0.941080D-03  0.308859D-02  0.106894D-02
     33 -0.332650D-04  0.523546D-04 -0.206971D-03 -0.570169D-03 -0.868868D-04
     34  0.344551D-02  0.550461D-02 -0.583914D-02  0.206964D-01  0.277003D-01
     35  0.296638D-02  0.927067D-03 -0.315111D-02  0.191663D-01 -0.110249D-01
     36 -0.208825D-02 -0.164037D-02 -0.301084D-03 -0.202378D-01 -0.106395D-01
     37  0.443335D-02  0.127996D-01 -0.926282D-02  0.311507D-01  0.103734D+00
     38  0.999015D-02  0.697742D-02 -0.931949D-02  0.810056D-01  0.144642D-01
     39 -0.645372D-02 -0.831995D-02  0.257148D-03 -0.471033D-01 -0.491896D-01
     40  0.655084D-03  0.753297D-03 -0.884978D-03  0.317981D-02  0.161970D-02
     41 -0.335865D-03 -0.672292D-03  0.511765D-03 -0.102770D-02 -0.258654D-02
     42 -0.753786D-03 -0.792491D-03  0.699478D-03 -0.331344D-02 -0.127864D-02
     43  0.181636D-03  0.440045D-03 -0.465043D-03  0.964344D-03  0.223184D-02
     44  0.587253D-03  0.729328D-03 -0.871201D-03  0.247591D-02  0.849237D-03
     45 -0.860082D-03 -0.120392D-02  0.105220D-02 -0.367090D-02 -0.398056D-02
     46 -0.590689D-03 -0.839716D-03  0.658544D-03 -0.147389D-02 -0.506369D-03
     47 -0.536075D-03 -0.109334D-02  0.820499D-03 -0.107571D-02 -0.545992D-02
     48 -0.793915D-03 -0.670225D-03  0.583791D-03 -0.533614D-02 -0.267343D-02
     49  0.650845D-03  0.233520D-02 -0.166963D-02 -0.179072D-02  0.134000D-01
     50  0.157888D-03  0.589147D-05 -0.109166D-03  0.226289D-02  0.203865D-02
     51 -0.598205D-03 -0.145627D-02  0.715190D-03 -0.158884D-02 -0.841912D-02
     52 -0.262479D-02  0.728187D-03 -0.998040D-04 -0.312666D-01  0.105864D-01
     53  0.231530D-02  0.548468D-02 -0.399835D-02  0.110710D-01  0.536776D-01
     54 -0.551675D-03 -0.231146D-02 -0.171206D-02 -0.404995D-02 -0.177538D-01
     55 -0.909498D-04  0.525234D-03 -0.298820D-03 -0.291729D-02  0.324248D-02
     56  0.790373D-03  0.216749D-02 -0.130897D-02  0.746492D-03  0.128231D-01
     57  0.327609D-03  0.971845D-03 -0.899674D-03 -0.554574D-03  0.463628D-02
     58 -0.424263D-02  0.558216D-02 -0.285419D-02 -0.771193D-01  0.381468D-01
     59  0.532463D-02  0.168700D-01 -0.102430D-01  0.994341D-02  0.175992D+00
     60 -0.121500D-02 -0.543046D-02 -0.328961D-02 -0.354777D-02 -0.303918D-01
     61 -0.785217D-02  0.244521D-01 -0.484505D-02 -0.134425D+00  0.166675D+00
     62  0.277939D-01  0.461052D-01 -0.136909D-01  0.112920D+00  0.189060D+00
     63 -0.658917D-03 -0.192735D-02 -0.164818D-01  0.106013D-01  0.606506D-01
     64 -0.530521D-03 -0.873243D-03  0.700007D-03 -0.235795D-02 -0.447119D-02
     65  0.337305D-03  0.122823D-02 -0.100520D-02 -0.895775D-03  0.892452D-02
     66 -0.358911D-03 -0.147958D-02  0.785597D-03  0.122306D-02 -0.891799D-02
     67 -0.996985D-03 -0.213682D-02  0.114881D-02 -0.435693D-02 -0.156869D-01
     68  0.184598D-03  0.227475D-02 -0.106835D-02 -0.516866D-02  0.208634D-01
     69  0.248823D-03  0.106255D-02 -0.126199D-02 -0.250644D-02  0.829213D-02
     70 -0.101578D-02  0.278398D-03  0.711137D-05 -0.171016D-01  0.484084D-02
     71 -0.681754D-04 -0.249125D-03 -0.729133D-05  0.700377D-02  0.152804D-01
     72 -0.761329D-03 -0.377256D-02  0.136713D-02 -0.123894D-02 -0.374863D-01
     73 -0.964296D-03 -0.117577D-02  0.869526D-03 -0.303674D-02 -0.184390D-02
     74  0.139365D-02  0.170102D-02 -0.683679D-03  0.641501D-02  0.498625D-02
     75 -0.308989D-03 -0.597698D-03  0.422996D-04  0.838660D-03  0.387075D-04
     76  0.409858D-02  0.791649D-02 -0.148454D-02  0.167677D-01  0.362842D-01
     77  0.381571D-02  0.132488D-02 -0.119174D-03  0.208142D-01 -0.860450D-02
     78  0.138955D-02  0.119278D-02 -0.221331D-02  0.181926D-01  0.155651D-01
     79  0.714839D-03  0.130560D-02 -0.522856D-03  0.197830D-02  0.468553D-02
     80  0.862077D-03  0.102321D-02 -0.515352D-03  0.310702D-02  0.193668D-02
     81  0.438250D-03  0.617334D-03 -0.460283D-03  0.225096D-02  0.268709D-02
     82  0.379223D-02  0.522869D-02 -0.106627D-02  0.261870D-01  0.277994D-01
     83  0.441161D-02  0.121523D-02 -0.140833D-02  0.225738D-01 -0.142662D-01
     84  0.222604D-02  0.235566D-02 -0.387781D-02  0.204866D-01  0.136212D-01
     85  0.337657D-01  0.328440D-01 -0.127436D-01  0.247812D+00  0.126540D+00
     86  0.187298D-01 -0.250184D-02 -0.544588D-02  0.826876D-01 -0.133081D+00
     87  0.209580D-02  0.616828D-03 -0.157204D-01  0.875991D-01  0.272159D-01
     88  0.997957D-04  0.352582D-03  0.225952D-03  0.517038D-03  0.212102D-02
     89 -0.261669D-03 -0.978528D-03  0.492698D-03 -0.153452D-04 -0.450016D-02
     90  0.151013D-02  0.191489D-02 -0.970303D-03  0.676079D-02  0.611042D-02
     91  0.655723D-03  0.971002D-03 -0.483376D-03  0.346981D-02  0.454118D-02
     92  0.109300D-02  0.108345D-02 -0.793630D-03  0.500640D-02  0.191150D-02
     93 -0.107845D-02 -0.150364D-02  0.750766D-03 -0.358222D-02 -0.381264D-02
     94  0.136653D-02  0.162507D-02 -0.840222D-03  0.580919D-02  0.416302D-02
     95 -0.372134D-03 -0.801888D-03  0.462935D-03 -0.872026D-03 -0.310280D-02
     96  0.354656D-03  0.363277D-03 -0.443792D-03  0.235063D-02  0.120076D-02
     97  0.162261D-01  0.596420D-01 -0.297176D-01  0.370894D+00  0.696357D+00
     98  0.532621D-01  0.340181D-01 -0.345772D-01  0.588871D+00 -0.482174D-02
     99 -0.166195D-01 -0.245807D-01 -0.198481D-01 -0.155597D+00 -0.139797D+00
                6             7             8             9            10
      6  0.231979D+02
      7  0.207977D+01  0.385493D+01
      8 -0.423501D+00  0.217411D+00  0.606243D+01
      9 -0.484106D+01 -0.165597D+01  0.420380D+00  0.495154D+01
     10 -0.267033D+01 -0.278295D+00  0.135803D+00  0.152362D+00  0.236302D+02
     11  0.942575D+00  0.216018D+00  0.229916D+00 -0.439988D-01 -0.269560D+01
     12 -0.725449D+01  0.126012D+00 -0.283185D-01  0.311742D+00  0.147777D+01
     13 -0.307872D+00  0.115124D+00  0.689685D-01 -0.108588D+00 -0.721645D+01
     14  0.454714D+00  0.888727D-01 -0.848923D-01 -0.439175D-01  0.239530D+01
     15 -0.250014D-01 -0.207669D+00 -0.617796D-01 -0.896003D-02 -0.242087D+01
     16  0.263923D+00  0.567606D-01 -0.167469D+00 -0.233909D+00 -0.749466D-02
     17  0.194449D+01 -0.161174D+00  0.138668D+00 -0.181246D+00  0.203000D+00
     18 -0.624311D+01 -0.291663D+00 -0.234359D+00 -0.937984D-01  0.236234D+00
     19 -0.401683D-01  0.244398D+00 -0.702316D-01  0.823402D-01 -0.504484D+01
     20  0.155717D-01 -0.911366D-01 -0.319618D-01 -0.237356D-01 -0.945968D+00
     21  0.434627D+00  0.927087D-01 -0.219388D-01 -0.306023D-01  0.259306D+01
     22  0.270290D+00 -0.626552D-01  0.726691D-01  0.273203D-01 -0.670994D+01
     23 -0.410978D+00  0.881066D-01 -0.259820D-01 -0.270057D-01  0.271414D+00
     24  0.336106D-01  0.291162D-01 -0.200022D-01  0.280032D-01  0.151792D+00
     25 -0.912247D-03  0.223508D-03  0.923769D-04 -0.471980D-04  0.510288D-02
     26 -0.171359D-03 -0.109152D-02 -0.169126D-03 -0.691731D-03 -0.215258D-02
     27 -0.272591D-02  0.219527D-02 -0.175125D-03  0.105129D-02  0.109222D-01
     28 -0.111506D-01  0.538806D-02  0.516136D-03  0.147870D-02  0.426612D-01
     29 -0.375663D-02  0.299562D-02 -0.180326D-02  0.111530D-02  0.410053D-01
     30 -0.130046D-01 -0.333506D-02 -0.242416D-05 -0.310098D-02 -0.353976D-01
     31 -0.752998D-03  0.187711D-02  0.264778D-04  0.101545D-02  0.899189D-02
     32 -0.313335D-03  0.154786D-02 -0.203001D-03  0.887171D-03  0.892304D-02
     33 -0.138908D-02  0.214391D-03 -0.300087D-04  0.433858D-05 -0.226689D-03
[...]
 4049729,-0.04492053,-0.03043437,-0.01089136,-0.00785137,-0.00535651,0.
 45399442,-0.00009106,0.00005667,-0.00013205,-0.00003506,-0.00001598,0.
 00012346,0.00003117,0.00000572,-0.00001886,0.00063958,-0.00038116,0.00
 035041,0.00178661,-0.00015290,-0.00147378,0.00002437,0.00007778,0.0000
 9638,-0.00032520,-0.00037552,0.00032587,0.00009855,0.00003142,-0.00011
 857,-0.00011472,0.00015670,-0.00011573,0.00015871,0.00005890,-0.000159
 87,0.00007359,-0.00008476,0.00025649,0.00006533,-0.00005424,0.00008351
 ,0.00038468,-0.00058391,0.00074607,-0.00009318,0.00000607,0.00009357,-
 0.00000610,0.00002235,-0.00001046,-0.00013006,-0.00008555,-0.00005230,
 0.00001512,0.00001979,-0.00001340,0.00004508,-0.00001052,-0.00007874,-
 0.00002657,-0.00003997,-0.00000485,-0.00005696,-0.00034306,0.00022779,
 -0.00027277,-0.00050127,-0.00000427,0.00004336,-0.00003455,0.00002798,
 -0.00002446,-0.00003214,-0.00001105,-0.00007920,0.00010978,0.00008074,
 -0.02108132,-0.01529563,-0.00850000,-0.04534064,-0.11631557,-0.0244686
 2,-0.00835223,-0.00770279,-0.00490321,-0.09067483,0.48585570,0.0000649
 0,-0.00003946,0.00008261,-0.00006349,-0.00001786,0.00001808,0.00000573
 ,0.00002759,0.00002055,-0.00001139,0.00024331,-0.00010439,-0.00008216,
 0.00046711,0.00052436,-0.00001157,0.00003801,0.00000398,-0.00018232,-0
 .00019524,-0.00025440,0.00005086,-0.00004802,0.00000582,-0.00013749,-0
 .00015224,0.00044292,0.00001766,-0.00014982,0.00009744,-0.00013727,0.0
 0018139,-0.00035307,0.00007840,-0.00016927,-0.00025199,-0.00019018,0.0
 0122369,-0.00097734,0.00002271,0.00002348,-0.00007703,-0.00001033,0.00
 003184,0.00000937,0.00023220,0.00005969,0.00001309,0.00000635,-0.00001
 974,0.00000612,-0.00003973,-0.00002804,0.00004881,0.00002754,0.0000389
 1,-0.00000833,0.00040709,0.00013519,0.00006053,-0.00025699,0.00032226,
 0.00011990,-0.00004309,0.00005319,-0.00001253,-0.00011577,0.00013283,0
 .00008107,0.00002947,-0.00005992,-0.00004916,-0.01575602,-0.01173762,-
 0.00687631,-0.03814835,-0.03019478,-0.08749939,0.02080123,0.01588685,0
 .00810821,0.05244701,0.04124035,0.43201940,0.00021102,-0.00011217,0.00
 030998,-0.00005779,-0.00020177,-0.00008789,-0.00002872,0.00005470,-0.0
 0001318,-0.00035616,0.00016398,-0.00035756,-0.00274810,0.00078402,0.00
 322180,-0.00006401,0.00005009,-0.00003835,0.00026284,0.00002045,0.0003
 3349,-0.00002834,-0.00012054,0.00026097,-0.00034646,0.00046715,0.00034
 523,0.00015307,-0.00048427,-0.00025091,-0.00023432,0.00027871,-0.00048
 089,0.00065531,-0.00002293,0.00014874,-0.00274017,0.00527888,-0.002184
 69,-0.00043489,-0.00017376,-0.00033984,-0.00024805,-0.00000402,0.00000
 155,0.00007882,-0.00022428,-0.00001221,0.00002750,-0.00016464,-0.00000
 874,0.00005956,-0.00014840,-0.00021382,0.00005745,0.00010217,0.0000106
 2,0.00012115,0.00016215,0.00020032,0.00068189,0.00099597,0.00035044,0.
 00002041,-0.00001439,0.00008596,-0.00000216,0.00010772,0.00007177,0.00
 018024,-0.00020193,-0.00018139,0.00094044,0.00095720,-0.00021126,-0.01
 132909,-0.01108812,0.01799375,-0.00336328,-0.00392033,0.00049773,-0.05
 357818,-0.01780801,0.03461077,0.08438518,-0.00000630,0.00008576,-0.000
 10494,-0.00017935,0.00000784,-0.00005902,0.00000836,0.00006750,0.00011
 306,-0.00035408,-0.00003765,-0.00018711,-0.00047543,0.00049584,0.00116
 513,0.00007447,-0.00021434,0.00009291,0.00000435,0.00066778,-0.0004924
 8,-0.00022940,0.00027028,-0.00005189,0.00004111,-0.00036440,0.00011697
 ,0.00047508,0.00016851,0.00007419,-0.00011938,0.00004204,-0.00013157,-
 0.00054999,-0.00104241,-0.00044677,0.00395126,-0.00292375,0.00234854,0
 .00003063,0.00038728,0.00022136,0.00020837,0.00058912,0.00026656,0.000
 21877,0.00029618,0.00005830,-0.00008682,0.00008726,0.00003239,0.000106
 24,0.00012301,-0.00022419,-0.00007207,-0.00003208,0.00000803,-0.002240
 62,-0.00130897,-0.00093518,0.00331596,-0.00304274,-0.00263112,0.000263
 39,-0.00028872,0.00001455,0.00082832,-0.00085358,-0.00057909,0.0000776
 7,-0.00008567,0.00000252,0.00108904,0.00151556,0.00114290,-0.01012843,
 -0.00786816,0.01415842,-0.00348853,-0.00114730,0.00008117,-0.01320741,
 -0.05801199,0.02852187,0.01996577,0.08989632,-0.00008100,0.00005773,-0
 .00006707,-0.00002215,-0.00013515,0.00012163,0.00009509,0.00001232,-0.
 00005841,0.00043392,-0.00057156,0.00046243,0.00380790,-0.00052017,-0.0
 0188938,-0.00005562,0.00011670,0.00004209,-0.00007021,0.00016511,-0.00
 007814,0.00007109,0.00007902,0.00000735,0.00051327,0.00031783,-0.00006
 141,0.00001179,-0.00025539,-0.00022646,-0.00016837,0.00008516,-0.00009
 912,0.00016441,-0.00044496,-0.00032360,-0.00099395,0.00169799,-0.00002
 137,-0.00051647,0.00010676,-0.00017570,-0.00011354,0.00025239,0.000270
 34,-0.00023946,-0.00008213,-0.00002347,-0.00001941,-0.00001860,-0.0000
 4487,0.00015261,-0.00006198,-0.00034128,-0.00004931,-0.00003824,0.0000
 2598,-0.00103983,-0.00064891,0.00030890,0.00129878,-0.00226122,-0.0001
 7089,0.00021309,-0.00020218,0.00008040,0.00024848,-0.00033327,-0.00015
 839,-0.00000536,0.00003579,0.00003268,-0.00070131,0.00046323,0.0007603
 6,0.00402407,0.00356212,-0.00029609,-0.00062317,-0.00041349,0.00126115
 ,0.03282199,0.03455741,-0.08630159,-0.06676189,-0.04993020,0.12339858,
 0.00001687,-0.00002225,0.00003816,-0.00000596,-0.00000784,-0.00000630,
 0.00000941,0.00000152,-0.00000077,-0.00005716,0.00002543,-0.00002238,-
 0.00000057,-0.00007353,0.00007709,-0.00001604,0.00002843,-0.00001047,0
 .00000780,-0.00000694,-0.00002039,0.00000861,-0.00001686,0.00002224,0.
 00000591,0.00006055,-0.00008219,0.00004188,-0.00000952,0.00003232,0.00
 003399,-0.00002296,0.00005027,0.00001128,0.00006383,0.00003278,-0.0001
 8782,-0.00002272,0.00020946,-0.00004909,-0.00002449,-0.00000585,-0.000
 04353,-0.00001540,-0.00001680,-0.00004122,-0.00001984,-0.00000829,0.00
 000700,-0.00000792,-0.00000749,0.00002861,-0.00002484,-0.00002269,0.00
 000623,-0.00000099,-0.00000596,0.00004865,-0.00010378,0.00016692,-0.00
 006985,0.00011837,0.00008141,-0.00001028,0.00000674,0.00001591,-0.0000
 3711,0.00004291,0.00004071,-0.00003526,0.00002775,0.00001587,-0.008053
 78,0.00603442,-0.00708429,-0.15521914,0.09102314,-0.08625679,0.0118993
 0,-0.00942400,0.00862466,-0.01859333,0.01480956,-0.01445864,0.00234654
 ,0.00048127,0.00040517,0.16958912,-0.00001342,0.00001988,-0.00002776,0
 .00000822,0.00000352,0.00000360,-0.00000298,-0.00000365,-0.00000339,0.
 00000958,-0.00000638,0.00003623,0.00006809,0.00001936,-0.00007106,0.00
 001169,-0.00002037,0.00001409,0.00000080,-0.00000561,0.00000802,-0.000
 00063,0.00001002,-0.00001785,0.00000179,0.00003779,-0.00005316,0.00001
 286,-0.00003562,0.00002286,0.00001313,-0.00001266,0.00001729,0.0000120
 3,-0.00004112,-0.00004329,-0.00004136,0.00010382,0.00012945,-0.0000116
 4,0.00001731,0.00000751,0.00001173,0.00001646,0.00001605,-0.00000074,0
 .00001951,0.00000386,-0.00001485,-0.00000437,0.00000407,-0.00004048,0.
 00002183,0.00001601,-0.00000178,0.00000942,0.00001152,-0.00007685,0.00
 011126,-0.00021171,0.00017449,-0.00012388,-0.00005958,0.00001664,-0.00
 000704,-0.00001484,0.00005181,-0.00005740,-0.00004865,0.00003945,-0.00
 003036,-0.00002256,0.01480042,-0.01242332,0.01472078,0.09259529,-0.124
 25652,0.07451289,0.00762364,-0.00763100,0.00550985,-0.01481094,0.01118
 480,-0.01098062,0.00097701,0.00082678,-0.00124282,-0.09821192,0.132809
 50,0.00000948,-0.00000443,0.00001051,-0.00001042,0.00000546,-0.0000091
 1,-0.00000462,0.00000387,0.00000987,0.00001462,-0.00001693,-0.00001917
 ,-0.00001312,0.00000687,0.00004664,0.00000491,-0.00001127,-0.00000691,
 -0.00000174,0.00003136,-0.00001226,-0.00001339,-0.00000494,0.00001768,
 0.00002009,0.00002260,-0.00000345,0.00003413,0.00000779,-0.00000327,0.
 00000834,-0.00000811,0.00002126,0.00002029,0.00000159,0.00001825,-0.00
 011666,0.00006788,0.00009305,-0.00003104,-0.00001270,-0.00000283,-0.00
 001554,0.00000448,-0.00000521,-0.00001105,-0.00000671,0.00000021,-0.00
 000113,-0.00000778,0.00000123,-0.00001316,0.00000707,0.00000312,-0.000
 00004,0.00000356,0.00000246,-0.00000806,0.00004820,-0.00011264,0.00012
 808,-0.00001301,0.00004297,-0.00000285,0.00000468,0.00000050,0.0000195
 3,-0.00001162,-0.00000547,0.00001818,-0.00001836,-0.00001449,0.0128798
 4,-0.00981906,0.01189117,-0.08842081,0.07406805,-0.12173963,-0.0165200
 2,0.01335698,-0.01381950,-0.00816684,0.00665517,-0.00708931,0.00105911
 ,-0.00061262,0.00108370,0.10005370,-0.08154324,0.12972503,-0.00001286,
 0.00000163,-0.00002712,-0.00005201,0.00003383,-0.00001282,-0.00000977,
 0.00001979,0.00003863,0.00026100,-0.00018280,-0.00002991,-0.00013370,0
 .00016044,-0.00007999,0.00000062,-0.00002835,-0.00001519,-0.00005909,0
 .00012133,-0.00001530,-0.00007156,0.00004344,0.00001268,-0.00006221,-0
 .00019672,0.00015629,-0.00007328,0.00018616,-0.00014085,-0.00009122,-0
 .00003294,-0.00000158,-0.00029662,-0.00014333,0.00002293,0.00060635,-0
 .00076321,-0.00041734,0.00010703,0.00005488,0.00007778,0.00007424,0.00
 004917,0.00001739,0.00006778,0.00000856,0.00003054,0.00001106,0.000032
 67,0.00001628,0.00000545,0.00002568,0.00003621,-0.00001495,-0.00001880
 ,-0.00001301,0.00004612,0.00004205,0.00001359,-0.00013755,0.00005622,0
 .00004130,-0.00000810,-0.00000359,-0.00001247,-0.00002284,0.00001779,0
 .00000042,0.00000988,-0.00001421,0.00001361,0.00110902,0.00005175,0.00
 037097,-0.01735086,0.01261088,-0.01355147,0.00042149,0.00027007,0.0007
 8540,-0.15588447,0.09497007,-0.09015748,0.00562322,-0.01027514,0.01237
 114,-0.00299627,-0.00365730,-0.00140367,0.17521876,0.00000751,-0.00000
 952,0.00000483,-0.00003726,0.00001917,-0.00001765,-0.00001176,0.000017
 12,0.00003096,0.00013033,-0.00011945,-0.00004343,-0.00006468,0.0000691
 7,-0.00000582,0.00000044,-0.00001269,-0.00002128,-0.00004703,0.0000857
 8,-0.00000709,-0.00004307,0.00000295,0.00003810,-0.00008206,-0.0002847
 8,0.00029706,-0.00018220,0.00011692,-0.00006518,-0.00010637,0.00012424
 ,-0.00019430,-0.00007784,0.00031254,0.00019688,-0.00026522,-0.00010163
 ,-0.00064888,0.00017985,-0.00008435,-0.00005502,-0.00001740,-0.0001492
 1,-0.00006066,0.00001076,-0.00006255,-0.00005177,0.00001142,-0.0000090
 6,-0.00000287,-0.00000465,-0.00001691,0.00000411,0.00000747,0.00000610
 ,-0.00000473,0.00012778,0.00003694,0.00004089,-0.00007575,0.00012148,0
 .00006958,-0.00001848,0.00001859,0.00000260,-0.00004129,0.00004229,0.0
 0003378,0.00000090,-0.00001707,-0.00001201,0.00057405,0.00096563,0.000
 21068,-0.01514853,0.01145913,-0.01176446,0.00096631,0.00067593,0.00046
 226,0.10073178,-0.12993283,0.07112162,0.00022506,-0.00584189,0.0097436
 9,-0.00451178,-0.00172566,-0.00222132,-0.09880825,0.13802021,0.0000125
 4,-0.00001064,0.00003808,0.00007502,-0.00004129,0.00001620,0.00001631,
 -0.00002922,-0.00005106,-0.00032313,0.00024686,0.00002391,0.00007624,-
 0.00020527,0.00011057,-0.00001638,0.00004830,0.00000153,0.00009328,-0.
 00017769,0.00002281,0.00009592,-0.00005153,-0.00002618,0.00004547,0.00
 012960,-0.00007086,0.00007807,-0.00005409,0.00006071,-0.00001196,-0.00
 001127,0.00005230,0.00002475,0.00042434,0.00019748,-0.00068569,-0.0002
 3250,0.00038478,-0.00005797,-0.00007602,-0.00004149,-0.00011977,-0.000
 12510,-0.00007999,-0.00008793,-0.00009671,-0.00003862,0.00000517,-0.00
 001692,-0.00001877,0.00001809,-0.00002612,-0.00004885,0.00000125,-0.00
 000456,0.00000171,0.00002707,-0.00008080,0.00006434,0.00010540,-0.0001
 8456,0.00005276,0.00000482,-0.00000274,0.00002506,-0.00000974,0.000001
 74,0.00001521,-0.00002197,0.00001962,-0.00000295,0.00040197,0.00054659
 ,-0.00007945,-0.00820125,0.00578657,-0.00519440,-0.00020523,-0.0003704
 6,0.00053566,-0.09645711,0.07049888,-0.11701604,-0.00222685,0.01382669
 ,-0.01542152,-0.00201002,-0.00130668,0.00016495,0.09610151,-0.07796112
 ,0.12564918,0.00004291,-0.00002495,0.00005261,-0.00002544,0.00000483,-
 0.00003439,-0.00001792,0.00001460,0.00002924,-0.00005690,0.00005677,-0
 .00018380,-0.00058750,0.00003739,0.00050849,-0.00000404,-0.00002477,-0
 .00002841,0.00005206,0.00013147,-0.00011190,-0.00004537,-0.00002444,0.
 00006960,-0.00003461,0.00003056,0.00020087,-0.00003068,-0.00004236,-0.
 00006926,-0.00002233,0.00006974,-0.00008413,0.00009077,0.00021006,0.00
 016663,-0.00030454,0.00008466,-0.00009636,-0.00001931,-0.00006330,-0.0
 0005216,-0.00005199,-0.00007798,-0.00007098,0.00002999,-0.00005556,-0.
 00001185,-0.00000264,-0.00002504,-0.00000020,-0.00001881,-0.00000234,0
 .00002046,0.00001512,0.00002123,0.00000130,0.00012371,0.00015987,-0.00
 009760,0.00017026,0.00022484,0.00015248,-0.00002883,0.00002648,0.00000
 271,-0.00000835,0.00003545,0.00002440,0.00004160,-0.00005765,-0.000044
 74,-0.00382351,-0.00343667,-0.00201377,0.00829320,-0.02096653,-0.01680
 275,0.00114020,0.00105539,0.00057126,-0.07959536,0.07125612,0.04841242
 ,-0.00649383,0.00327553,0.01039274,0.00121797,0.00073950,0.00044827,-0
 .00686663,0.01583847,0.01362124,0.08619750,0.00000912,-0.00000351,0.00
 001200,-0.00000695,0.00000470,-0.00001747,-0.00000236,0.00000224,0.000
 00499,-0.00005442,0.00003264,-0.00007386,-0.00030921,0.00008637,0.0002
 2538,-0.00000137,-0.00002199,-0.00000953,0.00004697,0.00008313,-0.0000
 5822,-0.00002795,0.00001571,0.00001108,-0.00001530,-0.00002197,-0.0000
 4491,-0.00001139,0.00004611,-0.00001798,0.00000462,-0.00004016,0.00003
 128,0.00000049,-0.00017427,-0.00008388,0.00031642,0.00010943,-0.000176
 66,0.00002684,0.00003456,0.00003092,0.00005276,0.00006081,0.00002885,0
 .00003763,0.00006038,0.00003409,-0.00000358,0.00000181,0.00000741,-0.0
 0001394,0.00001054,0.00001184,-0.00000319,0.00000996,0.00000394,0.0000
 6627,0.00023599,-0.00002681,0.00006110,0.00011221,-0.00005493,0.000010
 39,-0.00001369,-0.00001365,-0.00000313,-0.00000088,-0.00000890,0.00006
 826,-0.00006304,-0.00004320,-0.00423856,-0.00113858,-0.00100667,0.0071
 7119,-0.01510361,-0.01219581,0.00006089,0.00013835,0.00079770,0.065680
 35,-0.17238044,-0.10335793,-0.00777094,0.00886751,0.01110150,-0.000506
 10,0.00117282,0.00023200,0.00606483,-0.01322456,-0.01177544,-0.0668951
 1,0.19227570,-0.00005067,0.00003826,-0.00006495,0.00003641,-0.00002855
 ,0.00004994,0.00002048,-0.00001399,-0.00003727,0.00007773,-0.00007612,
 0.00022435,0.00074799,-0.00003733,-0.00056070,0.00000072,0.00003268,0.
 00004295,-0.00008315,-0.00019090,0.00016832,0.00007371,0.00002567,-0.0
 0007880,-0.00002619,0.00000748,-0.00014651,0.00003168,0.00001970,0.000
 00746,0.00002041,-0.00004168,0.00007414,-0.00006317,-0.00002639,0.0000
 0407,-0.00006014,-0.00009954,0.00039163,0.00002420,0.00003723,0.000038
 07,0.00001637,0.00000705,0.00003374,-0.00006696,-0.00000224,-0.0000239
 5,-0.00000667,0.00001014,-0.00000571,0.00002149,0.00000134,-0.00005754
 ,-0.00001873,-0.00001496,0.00000909,-0.00013802,-0.00003616,0.00003015
 ,0.00009011,-0.00031598,-0.00003666,0.00005652,-0.00005646,0.00000721,
 0.00003934,-0.00008105,-0.00005202,0.00001449,0.00000983,0.00001114,-0
 .00231528,-0.00153965,0.00030462,0.00409344,-0.00948441,-0.00666005,-0
 .00055232,-0.00015935,0.00075406,0.04741196,-0.11173155,-0.13221371,0.
 01169514,-0.00558421,-0.01456747,0.00041339,0.00051977,-0.00012497,-0.
 00516214,0.01124017,0.01194486,-0.05525275,0.11547577,0.14145636,-0.00
 095964,-0.00001665,-0.00108681,-0.00018564,0.00174945,-0.00021051,0.00
 002638,-0.00012608,0.00033903,0.00578111,-0.00095542,-0.00013688,-0.02
 122096,-0.00803188,0.01183815,0.00019319,-0.00011296,-0.00062104,-0.00
 077702,0.00148862,-0.00090500,-0.00163974,0.00179153,-0.00192498,0.000
 61501,-0.00002519,0.00010445,0.00075549,-0.00012124,0.00012985,-0.0001
 8258,-0.00008106,0.00015374,-0.00371793,-0.00029984,-0.00363720,-0.009
 99843,0.00170780,-0.00526222,-0.00000027,0.00083189,0.00028597,-0.0000
 9433,-0.00050491,0.00036298,-0.00103996,0.00009120,-0.00089861,0.00010
 446,0.00071364,-0.00026341,-0.00050003,0.00029770,0.00152579,0.0000077
 4,-0.00041128,-0.00005486,0.00576074,0.00191293,0.00120701,-0.01665236
 ,-0.01186901,-0.00802672,-0.00082501,0.00073068,-0.00028910,-0.0022685
 8,0.00168423,0.00116363,-0.00102319,0.00117579,0.00124723,-0.00081424,
 -0.00068673,0.00020267,-0.00077447,0.00083182,0.00048066,0.00081900,0.
 00021110,-0.00065255,-0.00294842,0.00011047,0.00258793,-0.01375110,0.0
 0699738,0.00443552,0.00013724,-0.00028329,0.00003564,0.00058198,0.0007
 3152,-0.00036912,0.00062330,0.00018536,-0.00108941,0.06396825,-0.00060
 494,-0.00010844,-0.00046130,0.00026576,0.00069302,-0.00023379,0.000129
 03,-0.00015985,-0.00011175,-0.00149511,-0.00320792,0.00350034,-0.00249
 497,-0.00852804,0.00327355,-0.00004743,0.00069983,-0.00017215,-0.00041
 797,-0.00095163,0.00085717,0.00068706,-0.00028519,0.00005277,-0.000034
 13,-0.00035146,-0.00090128,-0.00184346,-0.00018406,-0.00016127,0.00014
 689,0.00007305,0.00036181,-0.00046535,0.00440873,-0.00349777,0.0062537
 7,-0.01325396,0.01085508,0.00021508,-0.00098002,-0.00035122,-0.0013525
 8,-0.00186449,-0.00066253,-0.00143506,-0.00069455,-0.00047719,0.000636
 94,-0.00069954,0.00027651,-0.00051890,-0.00077226,-0.00037963,0.000286
 44,0.00014950,0.00002640,0.00141860,-0.00380520,-0.00226905,-0.0055528
 2,-0.01659574,-0.00695982,-0.00061230,0.00097900,0.00032523,-0.0006875
 6,0.00088762,0.00083834,-0.00085483,0.00046380,-0.00024705,-0.00064405
 ,-0.00002026,-0.00013272,-0.00021803,0.00054454,0.00206795,-0.00100518
 ,-0.00109441,0.00029668,0.00005637,0.00474913,-0.00259862,0.01186947,-
 0.02133095,-0.00519450,0.00030976,0.00000082,-0.00021550,-0.00069663,-
 0.00050204,0.00131153,-0.00157628,-0.00117429,0.00209544,0.00028243,0.
 06291525,0.00026780,-0.00057367,0.00084328,0.00056770,0.00070284,-0.00
 074877,-0.00026870,0.00000109,0.00016163,0.00024129,0.00223562,-0.0034
 3927,0.00638701,0.00570028,-0.01366768,-0.00048559,-0.00000154,-0.0009
 3848,0.00070602,0.00008829,0.00026061,0.00016781,-0.00084421,0.0006130
 4,-0.00012199,-0.00066261,-0.00030565,-0.00005881,0.00031685,-0.000746
 52,-0.00002945,-0.00023767,0.00009143,-0.00216100,-0.00320128,-0.00170
 282,-0.00967241,0.00628953,-0.02030228,0.00059465,0.00093022,0.0007567
 7,0.00159565,0.00139128,0.00068501,0.00052648,0.00102897,0.00045459,-0
 .00002902,0.00035683,0.00038431,0.00003960,0.00053239,0.00117774,0.000
 10484,0.00001955,-0.00021497,0.00034467,-0.00317844,-0.00274973,-0.004
 01740,-0.00696903,-0.01041457,-0.00075319,0.00051894,-0.00027676,0.000
 38984,0.00030932,0.00002086,-0.00012714,-0.00065916,-0.00063651,0.0002
 5069,0.00013556,0.00041006,-0.00022421,0.00041073,0.00027839,-0.000288
 64,-0.00037795,0.00013705,0.00360000,-0.00356677,-0.00257765,0.0021721
 0,-0.00027516,-0.00752935,-0.00026079,0.00009335,-0.00016439,0.0009336
 9,-0.00035961,-0.00127194,0.00028034,0.00095708,-0.00092184,-0.0006718
 4,-0.00111165,0.06233440\\-0.00000507,0.00000045,-0.00000486,-0.000008
 36,-0.00002574,0.00000589,0.00000290,0.00000561,0.00000035,0.00001719,
 0.00006182,0.00002236,0.00001178,-0.00002325,-0.00000298,0.00000180,0.
 00000764,0.00001444,0.00001158,0.00000546,-0.00000549,0.00000178,-0.00
 001439,-0.00002004,0.00000805,-0.00001204,0.00000302,-0.00002237,0.000
 00765,0.00000303,0.00001131,-0.00000019,0.00000853,0.00005085,-0.00002
 016,-0.00005117,-0.00003394,0.00002956,0.00000681,-0.00000108,0.000010
 48,-0.00000547,-0.00002470,-0.00000083,0.00002158,0.00002837,-0.000007
 13,0.00000107,-0.00000753,0.00000609,-0.00000106,0.00000531,-0.0000128
 6,0.00000588,0.00000742,0.00000494,0.00000411,-0.00001015,-0.00001535,
 -0.00002295,0.00003983,0.00006276,-0.00003350,-0.00000256,-0.00000214,
 -0.00000475,0.00000687,-0.00000059,0.00001435,-0.00000649,0.00000069,0
 .00000505,0.00000407,0.00000407,0.00000695,-0.00000762,-0.00000175,0.0
 0000271,0.00000275,0.00000390,-0.00000750,0.00006303,-0.00002260,0.000
 06158,-0.00006972,-0.00003239,-0.00005596,-0.00001970,0.00000881,-0.00
 000662,-0.00000020,0.00000624,0.00000273,-0.00000448,-0.00000671,-0.00
 001336,-0.00005091,-0.00002806,0.00004527\\\@


 "WHERE SHALL I START, PLEASE YOUR MAJESTY?" HE ASKED.
 "BEGIN AT THE BEGINNING," THE KING SAID GRAVELY,
 "AND GO ON TILL YOU COME TO THE END: THEN STOP." 

                                      -- LEWIS CARROLL
 Job cpu time:  0 days  6 hours 50 minutes 38.5 seconds.
 File lengths (MBytes):  RWF=    332 Int=      0 D2E=      0 Chk=     11 Scr=      1
 Normal termination of Gaussian 03 at Thu Mar  5 00:19:55 2015.
